ITEM: TIMESTEP
300
ITEM: NUMBER OF ATOMS
4000
ITEM: BOX BOUNDS pp pp pp
0.0000000000000000e+00 1.6795961913825074e+01
0.0000000000000000e+00 1.6795961913825074e+01
0.0000000000000000e+00 1.6795961913825074e+01
ITEM: ATOMS id type x y z xu yu zu vx vy vz
1 1 16.0547 16.3888 16.4403 -0.741219 -0.407178 -0.355694 0.0550404 -0.301283 0.987748
2 1 16.7855 0.566809 0.20475 -0.0104212 0.566809 0.20475 0.725912 -0.304315 -1.91436
3 1 0.817096 16.6255 0.548238 0.817096 -0.170449 0.548238 1.27277 0.752957 -1.64625
4 1 16.0729 0.576577 1.12313 -0.723067 0.576577 1.12313 0.720334 0.249107 -2.59481
5 1 1.31519 16.2098 16.3856 1.31519 -0.586148 -0.4104 -0.800054 0.486885 1.6936
6 1 2.77608 1.11799 16.2979 2.77608 1.11799 -0.498058 1.53261 -0.22174 2.2664
7 1 3.24879 0.292835 16.713 3.24879 0.292835 -0.0829794 -1.01559 0.613746 -0.292681
8 1 1.61743 0.464987 16.7439 1.61743 0.464987 -0.0520476 1.16606 1.12101 0.592581
9 1 4.30742 0.43187 0.108129 4.30742 0.43187 0.108129 0.0655764 1.32273 -0.984303
10 1 4.34147 1.66683 16.2213 4.34147 1.66683 -0.574672 0.984188 0.471172 0.36228
11 1 5.16283 1.28538 0.100525 5.16283 1.28538 0.100525 1.81357 -1.24641 -0.837049
12 1 3.10159 1.33319 1.59884 3.10159 1.33319 1.59884 1.78954 -0.368269 0.881501
13 1 5.85322 0.0701677 16.3382 5.85322 0.0701677 -0.457759 1.38708 0.0160358 -1.10335
14 1 6.69516 1.07363 0.70149 6.69516 1.07363 0.70149 -0.821861 -0.690396 1.79237
15 1 5.15919 16.7349 0.283526 5.15919 -0.0611061 0.283526 2.80048 -2.26423 0.837689
16 1 5.92937 1.93565 16.4548 5.92937 1.93565 -0.341209 0.796827 2.12846 2.10039
17 1 6.03091 0.0840224 0.783469 6.03091 0.0840224 0.783469 -0.585004 0.717234 -0.839595
18 1 7.91081 1.07005 1.07143 7.91081 1.07005 1.07143 -0.091716 1.20186 1.26206
19 1 8.6588 0.547931 1.35969 8.6588 0.547931 1.35969 0.672468 3.09229 -3.09951
20 1 7.04997 1.62529 1.53191 7.04997 1.62529 1.53191 -0.948633 1.36407 -0.6335
21 1 8.94798 16.6547 0.383415 8.94798 -0.141245 0.383415 1.51923 1.20317 -2.95275
24 1 8.70237 1.70731 1.17018 8.70237 1.70731 1.17018 0.0929347 2.20136 -0.78285
22 1 8.74821 0.890466 0.337979 8.74821 0.890466 0.337979 0.120785 -0.28883 -0.605838
23 1 9.49627 1.11243 0.872083 9.49627 1.11243 0.872083 1.58959 -1.91713 -0.417736
25 1 10.2377 0.00450433 0.303751 10.2377 0.00450433 0.303751 -0.337202 1.23347 1.41939
28 1 10.1248 1.92086 0.978066 10.1248 1.92086 0.978066 0.434678 0.0335645 -1.05163
26 1 11.2216 0.84177 0.0982111 11.2216 0.84177 0.0982111 2.0549 -1.01903 -0.12503
27 1 10.347 0.837214 1.14949 10.347 0.837214 1.14949 0.451348 -2.7225 0.823963
29 1 12.0649 0.148981 0.281024 12.0649 0.148981 0.281024 0.838127 0.362645 0.146653
32 1 11.4568 0.722576 1.28443 11.4568 0.722576 1.28443 0.190204 -1.78108 -0.481227
30 1 13.1524 0.583653 0.275586 13.1524 0.583653 0.275586 -2.19722 1.6175 0.943834
31 1 13.1373 0.157698 1.21182 13.1373 0.157698 1.21182 -1.31207 -0.407759 -0.116555
33 1 12.8637 15.5502 16.3832 12.8637 -1.24574 -0.412799 -0.694536 0.828935 -0.778357
36 1 13.7723 0.994052 1.57514 13.7723 0.994052 1.57514 -0.611244 0.7359 1.12949
34 1 14.0011 0.671243 16.4435 14.0011 0.671243 -0.352457 0.0054972 -0.476238 1.19706
35 1 13.9901 0.0464791 0.659717 13.9901 0.0464791 0.659717 2.25361 -1.94221 1.30723
37 1 15.0733 0.425585 16.2056 15.0733 0.425585 -0.590351 1.20603 -0.872931 -0.328137
40 1 15.337 0.139127 0.382894 15.337 0.139127 0.382894 -0.751683 -0.888389 -2.32853
38 1 15.939 0.8236 16.5767 15.939 0.8236 -0.219266 -1.2955 0.816058 1.41599
39 1 16.5923 16.5786 0.771185 16.5923 -0.217346 0.771185 -3.20251 -1.48813 0.103322
41 1 0.634552 1.6794 0.197211 0.634552 1.6794 0.197211 1.53325 0.0333354 1.15464
42 1 2.03983 2.75826 0.845713 2.03983 2.75826 0.845713 1.63954 0.813101 -1.06123
43 1 1.07248 1.26639 0.996118 1.07248 1.26639 0.996118 0.540876 1.04332 0.324978
44 1 0.230042 2.49513 0.681381 0.230042 2.49513 0.681381 0.898972 2.21236 0.558713
45 1 1.79571 1.49145 16.7912 1.79571 1.49145 -0.00476433 0.57579 0.623668 -0.0685449
46 1 3.12656 2.22726 16.3867 3.12656 2.22726 -0.40928 0.918102 -0.00187891 0.643801
47 1 2.41907 0.623641 0.663659 2.41907 0.623641 0.663659 -2.87598 -0.276906 -1.1078
48 1 2.08567 1.82649 1.28618 2.08567 1.82649 1.28618 -2.6749 1.15504 -0.42825
49 1 3.32172 1.16999 0.31201 3.32172 1.16999 0.31201 3.37616 -0.0310739 1.23408
50 1 3.98771 2.03904 0.691716 3.98771 2.03904 0.691716 -1.82114 0.671598 0.627484
51 1 5.35649 2.09736 0.997494 5.35649 2.09736 0.997494 1.22299 -1.43411 0.166398
52 1 2.78425 2.1086 0.545735 2.78425 2.1086 0.545735 0.350526 -0.418999 -0.169318
53 1 4.77212 2.23953 0.0852724 4.77212 2.23953 0.0852724 0.492 0.710066 0.822872
54 1 6.43852 2.06885 0.598962 6.43852 2.06885 0.598962 0.0328763 -0.769776 0.867187
55 1 6.03825 1.8383 1.88404 6.03825 1.8383 1.88404 -0.0491981 -0.647051 1.4702
56 1 5.97315 2.95875 1.28975 5.97315 2.95875 1.28975 0.309784 0.0835696 -0.788301
57 1 7.10129 1.2549 16.4999 7.10129 1.2549 -0.296027 -1.13933 -0.318568 -0.566331
58 1 7.80621 2.74681 16.6392 7.80621 2.74681 -0.156729 -1.5498 1.45358 -0.0458478
59 1 8.02036 2.5131 1.31586 8.02036 2.5131 1.31586 -1.64068 1.89218 -1.80163
60 1 7.11061 2.82104 1.26038 7.11061 2.82104 1.26038 -0.721267 0.0122835 2.20491
61 1 7.60226 1.98725 0.415923 7.60226 1.98725 0.415923 -0.639165 -2.41591 0.149552
64 1 8.60359 3.03933 0.319611 8.60359 3.03933 0.319611 0.538612 0.472658 3.1706
62 1 8.69998 1.93465 0.197576 8.69998 1.93465 0.197576 -0.362944 -0.70274 -0.448808
63 1 9.27504 2.66181 1.06156 9.27504 2.66181 1.06156 1.73824 1.65121 -0.493637
65 1 9.91487 2.03754 16.5765 9.91487 2.03754 -0.219508 0.55286 0.483709 0.490604
68 1 8.78064 4.0642 0.707604 8.78064 4.0642 0.707604 -0.0980995 -0.601014 -0.365861
66 1 10.405 3.0242 0.774094 10.405 3.0242 0.774094 0.84237 2.05854 1.73932
67 1 11.0726 1.61449 0.838743 11.0726 1.61449 0.838743 2.74472 0.100415 -0.396556
69 1 11.5762 1.79516 0.0184676 11.5762 1.79516 0.0184676 -2.09778 -0.292971 0.241938
72 1 12.0756 2.40129 0.757981 12.0756 2.40129 0.757981 -0.805402 1.18701 -0.042941
70 1 12.9035 2.04792 0.320746 12.9035 2.04792 0.320746 1.01832 -0.526483 -1.21867
71 1 12.2756 1.15625 0.589374 12.2756 1.15625 0.589374 -0.66688 -0.236964 1.08411
73 1 13.9372 1.46267 0.439161 13.9372 1.46267 0.439161 -1.88113 -0.447503 -2.73316
76 1 14.089 2.50877 0.440405 14.089 2.50877 0.440405 -0.787967 -0.42084 0.815846
74 1 15.1708 1.88873 0.677518 15.1708 1.88873 0.677518 1.90753 0.248688 1.93613
75 1 14.7825 0.706319 0.931515 14.7825 0.706319 0.931515 -0.792554 0.788315 -1.25179
77 1 15.051 1.44212 16.5205 15.051 1.44212 -0.275447 1.11578 -1.06646 -1.33703
80 1 15.9206 2.28165 1.22802 15.9206 2.28165 1.22802 0.260826 2.00773 0.512816
78 1 16.7696 2.34944 16.4479 16.7696 2.34944 -0.34802 1.38954 -0.632978 -0.262166
79 1 16.1512 1.58852 0.404868 16.1512 1.58852 0.404868 -0.406118 0.419291 -1.04536
81 1 0.507515 3.21176 16.5487 0.507515 3.21176 -0.2473 0.770066 0.0984879 0.142716
82 1 0.972203 4.75759 0.819199 0.972203 4.75759 0.819199 0.445067 -0.415356 0.516141
83 1 0.503154 3.70168 0.56055 0.503154 3.70168 0.56055 -0.625008 -1.44112 1.61405
84 1 0.491778 4.01718 1.51655 0.491778 4.01718 1.51655 -1.21727 0.475038 1.16662
85 1 1.5782 3.61162 0.265875 1.5782 3.61162 0.265875 0.883026 -1.80863 0.355397
86 1 2.61578 4.32718 16.3957 2.61578 4.32718 -0.400282 1.28945 2.40375 0.562347
87 1 2.55885 3.11227 0.0465585 2.55885 3.11227 0.0465585 -0.453435 -2.04117 0.656075
88 1 2.26082 4.42164 0.610801 2.26082 4.42164 0.610801 -1.03913 0.743098 0.987962
89 1 3.81914 2.95125 0.0370774 3.81914 2.95125 0.0370774 0.533818 1.10535 1.12067
90 1 4.21225 3.89517 16.7398 4.21225 3.89517 -0.0562049 -0.820444 -0.323739 -0.139469
91 1 4.80899 2.95014 0.828392 4.80899 2.95014 0.828392 0.281644 0.530691 -0.304606
92 1 3.3698 4.15251 0.421176 3.3698 4.15251 0.421176 0.423286 0.414268 -2.12374
93 1 5.73991 2.69489 0.186458 5.73991 2.69489 0.186458 3.49458 0.31216 1.0962
94 1 5.15325 4.13302 16.0312 5.15325 4.13302 -0.764735 2.09575 -0.59421 1.68007
95 1 6.87425 3.0649 0.357195 6.87425 3.0649 0.357195 2.13315 1.83028 -0.501208
96 1 5.56674 3.60342 0.605182 5.56674 3.60342 0.605182 -0.989843 0.937517 -2.07595
97 1 7.08541 3.00678 15.9689 7.08541 3.00678 -0.827056 0.0120437 -0.829352 -0.329441
98 1 7.67078 4.21387 15.9613 7.67078 4.21387 -0.834647 1.24972 0.165771 0.885618
99 1 7.65444 3.73587 0.0624978 7.65444 3.73587 0.0624978 -0.908505 -1.42433 0.0598784
100 1 7.30756 4.85946 0.538673 7.30756 4.85946 0.538673 1.52702 0.204205 0.0931034
101 1 8.53938 3.71549 16.1093 8.53938 3.71549 -0.686706 0.92589 -0.165311 -2.15123
104 1 8.24795 4.72378 0.0633314 8.24795 4.72378 0.0633314 0.349265 0.23473 -3.6316
102 1 9.57357 4.19457 16.2984 9.57357 4.19457 -0.497585 -0.973096 -0.507963 -1.8283
103 1 7.51997 3.84199 1.13473 7.51997 3.84199 1.13473 1.48813 0.0369569 -0.182237
105 1 10.2786 3.96019 0.462249 10.2786 3.96019 0.462249 0.249817 1.68884 0.332543
108 1 9.44543 4.85712 0.480434 9.44543 4.85712 0.480434 0.3843 -1.35426 -1.85044
106 1 11.06 3.58704 1.14788 11.06 3.58704 1.14788 -0.589543 0.704078 -1.07872
107 1 11.2468 3.58603 0.176359 11.2468 3.58603 0.176359 1.10712 -0.637187 0.302766
109 1 13.0622 3.03034 0.621798 13.0622 3.03034 0.621798 3.6774 2.24166 -0.0561194
112 1 11.853 4.12649 1.71689 11.853 4.12649 1.71689 -0.640335 -0.201725 2.01578
110 1 12.212 3.63547 0.661774 12.212 3.63547 0.661774 1.10336 -0.813329 1.70091
111 1 12.2141 3.01249 1.52162 12.2141 3.01249 1.52162 -2.09295 1.80528 -1.57649
113 1 12.9865 3.67404 1.5497 12.9865 3.67404 1.5497 1.23026 1.8693 -2.29402
116 1 14.0585 3.60754 2.41232 14.0585 3.60754 2.41232 0.0134105 -1.41959 1.51774
114 1 14.1735 3.47918 0.161258 14.1735 3.47918 0.161258 0.515299 1.26795 0.433892
115 1 14.759 2.5452 1.35553 14.759 2.5452 1.35553 -1.24615 0.317879 0.161505
117 1 14.9986 2.55494 16.5326 14.9986 2.55494 -0.263324 -0.18775 -3.05361 1.01548
120 1 15.1449 3.6069 16.7529 15.1449 3.6069 -0.043053 0.13845 -1.79886 -0.225225
118 1 16.4441 3.75385 16.4449 16.4441 3.75385 -0.351061 1.20833 0.403674 0.399544
119 1 15.9082 2.87415 0.097429 15.9082 2.87415 0.097429 3.01722 -2.04406 -0.553684
121 1 0.0810189 4.86125 0.166599 0.0810189 4.86125 0.166599 -0.379731 -0.481327 1.43138
122 1 0.804694 5.66354 0.307096 0.804694 5.66354 0.307096 1.43468 -0.785985 3.03577
123 1 0.618597 5.11269 1.75488 0.618597 5.11269 1.75488 -0.812814 -0.282266 0.570626
124 1 16.2431 5.06959 1.23544 -0.552843 5.06959 1.23544 0.882084 -0.849769 -1.48052
125 1 2.01725 5.57617 0.462352 2.01725 5.57617 0.462352 0.704287 -0.2626 -0.399401
126 1 3.15678 6.06464 0.388149 3.15678 6.06464 0.388149 -0.60564 -0.290257 0.513585
127 1 3.22592 4.74893 1.18744 3.22592 4.74893 1.18744 0.943487 -0.873115 -1.20257
128 1 1.38184 5.64718 1.26005 1.38184 5.64718 1.26005 -1.29772 -0.713301 0.61337
129 1 3.307 5.27579 16.5171 3.307 5.27579 -0.278834 -0.744419 0.848034 -0.099519
130 1 4.41876 6.23224 16.776 4.41876 6.23224 -0.0199471 0.263243 -0.128284 -0.0366162
131 1 4.18032 5.29425 0.675292 4.18032 5.29425 0.675292 1.49349 -0.933727 -0.504783
132 1 3.6797 5.91989 1.28225 3.6797 5.91989 1.28225 -1.869 0.834259 0.600383
133 1 5.25383 4.56546 0.463465 5.25383 4.56546 0.463465 -0.382483 -2.8664 0.311513
134 1 5.22052 6.81008 16.3391 5.22052 6.81008 -0.456873 -1.38222 -0.589534 0.177997
135 1 5.60037 6.1406 0.44862 5.60037 6.1406 0.44862 1.90462 -0.145486 -0.263554
136 1 4.86089 5.94608 1.43138 4.86089 5.94608 1.43138 1.33575 -0.594639 2.686
137 1 6.07025 5.34516 0.318859 6.07025 5.34516 0.318859 1.2724 -0.66717 0.0122053
138 1 7.52086 5.60975 16.6774 7.52086 5.60975 -0.118593 0.476605 -0.96114 -0.293792
139 1 7.95319 6.02905 0.679502 7.95319 6.02905 0.679502 -0.132155 -1.92298 -0.963159
140 1 6.3473 6.01422 16.4772 6.3473 6.01422 -0.318801 -1.21253 2.54256 -1.14303
141 1 8.85015 5.60478 16.7228 8.85015 5.60478 -0.0731188 -0.908324 -0.987591 -0.123926
144 1 8.39651 6.08701 16.0509 8.39651 6.08701 -0.745029 1.58449 -1.17636 -1.91781
142 1 9.46925 7.0052 16.7065 9.46925 7.0052 -0.0894883 -1.22065 -0.397977 2.523
143 1 9.33005 5.89382 0.811876 9.33005 5.89382 0.811876 -3.56492 -0.549438 1.82866
145 1 10.1119 3.85206 15.4385 10.1119 3.85206 -1.35748 1.75922 -2.07218 0.0765286
148 1 10.2911 6.41589 0.860169 10.2911 6.41589 0.860169 -0.0178799 2.81179 2.66473
146 1 11.22 5.65673 0.968369 11.22 5.65673 0.968369 -1.14945 -1.09671 1.1302
147 1 9.80411 5.66207 16.3686 9.80411 5.66207 -0.427339 2.01972 0.704596 0.539537
149 1 11.8131 4.83965 0.940763 11.8131 4.83965 0.940763 -2.00131 -1.41169 -0.248231
152 1 12.4082 5.65804 1.29224 12.4082 5.65804 1.29224 -0.649528 0.113033 0.555679
150 1 12.0128 6.06596 0.502901 12.0128 6.06596 0.502901 -0.392783 -0.00713154 -0.530378
151 1 12.3163 4.44421 0.0584436 12.3163 4.44421 0.0584436 -0.615855 -2.35802 0.170262
153 1 13.3883 4.14398 0.461476 13.3883 4.14398 0.461476 0.829169 -2.59084 -1.37376
156 1 13.5263 5.59212 1.35263 13.5263 5.59212 1.35263 -1.12197 -0.552722 -0.236394
154 1 14.0576 5.45408 0.270045 14.0576 5.45408 0.270045 3.09211 1.04045 0.61213
155 1 14.7879 4.54291 0.502605 14.7879 4.54291 0.502605 1.89966 0.574026 -1.00783
157 1 14.0033 4.41619 16.4612 14.0033 4.41619 -0.334802 -0.512297 -0.0717671 -0.075126
160 1 15.1373 5.47649 0.852109 15.1373 5.47649 0.852109 0.165341 -1.23702 -1.63668
158 1 15.9214 5.67314 0.221998 15.9214 5.67314 0.221998 0.278538 -1.41275 -0.876726
159 1 15.9006 4.58903 16.5147 15.9006 4.58903 -0.281231 1.86069 -0.913339 -0.963682
161 1 0.068268 6.67052 0.440955 0.068268 6.67052 0.440955 0.49537 -1.08347 -1.98189
162 1 1.50495 6.46508 0.649294 1.50495 6.46508 0.649294 0.484134 -0.448088 -0.166331
163 1 0.314783 7.35598 1.51528 0.314783 7.35598 1.51528 -0.0202825 1.45017 -1.00496
164 1 16.2791 7.58445 1.02692 -0.516818 7.58445 1.02692 -0.48707 -0.879484 -0.236838
165 1 2.27635 6.60589 0.113457 2.27635 6.60589 0.113457 0.152286 -2.22583 0.224613
166 1 1.88056 7.57005 16.7343 1.88056 7.57005 -0.0616853 -1.8256 1.34254 2.83903
167 1 2.56003 6.2389 1.16481 2.56003 6.2389 1.16481 0.199798 -1.49474 1.71209
168 1 1.20723 7.76616 0.873098 1.20723 7.76616 0.873098 -3.63523 -2.48457 -0.637749
169 1 3.3393 6.88539 1.01512 3.3393 6.88539 1.01512 -1.13085 0.562966 0.936696
170 1 3.12586 7.36004 0.00753092 3.12586 7.36004 0.00753092 -3.0933 -2.09561 0.353207
171 1 4.32843 6.7425 0.869913 4.32843 6.7425 0.869913 2.2685 0.846607 -1.09739
172 1 2.3337 7.2448 1.19035 2.3337 7.2448 1.19035 -1.47691 -0.687841 -1.07335
173 1 4.23013 7.38275 16.5424 4.23013 7.38275 -0.253537 -1.39958 0.607564 0.478757
174 1 5.33182 7.91779 0.0793222 5.33182 7.91779 0.0793222 0.535408 0.222131 -0.71178
175 1 5.43723 7.15486 0.626528 5.43723 7.15486 0.626528 -0.349987 1.83955 -0.705982
176 1 4.55111 8.34559 0.487767 4.55111 8.34559 0.487767 0.343465 -0.889391 -1.10901
177 1 6.55352 6.60888 0.38132 6.55352 6.60888 0.38132 -0.411268 -0.372887 -0.218135
178 1 7.3668 7.35233 0.125473 7.3668 7.35233 0.125473 1.63589 0.00823466 2.00307
179 1 7.75126 7.24633 0.996154 7.75126 7.24633 0.996154 -1.51925 0.770434 -1.19601
180 1 6.70686 7.43061 1.22137 6.70686 7.43061 1.22137 -0.867181 0.182236 0.706849
181 1 8.06194 7.15115 16.0023 8.06194 7.15115 -0.793658 0.821875 -1.59235 0.669982
184 1 9.23102 7.92939 0.543234 9.23102 7.92939 0.543234 -0.19572 0.737432 1.16633
182 1 10.41 7.83388 16.6158 10.41 7.83388 -0.180118 -1.66847 1.37369 -0.832217
183 1 8.38016 6.77874 0.212869 8.38016 6.77874 0.212869 -0.107089 -1.08871 2.33835
185 1 11.0189 5.58749 0.000714737 11.0189 5.58749 0.000714737 1.66196 -0.139114 0.14452
188 1 11.3839 7.60029 1.19563 11.3839 7.60029 1.19563 -1.87798 -3.44394 -0.442734
186 1 11.2361 8.31481 0.375052 11.2361 8.31481 0.375052 -0.956301 -0.827517 -0.378775
187 1 11.4844 7.08396 0.173362 11.4844 7.08396 0.173362 0.648219 0.284704 -0.788397
189 1 11.7004 6.28582 16.3105 11.7004 6.28582 -0.485503 -0.728326 -1.96941 -0.701504
192 1 12.6391 8.38397 0.74922 12.6391 8.38397 0.74922 0.495188 -0.863077 -1.83063
190 1 13.2479 7.0518 16.3546 13.2479 7.0518 -0.441375 0.694421 -0.262656 0.95866
191 1 13.4319 6.58596 1.57457 13.4319 6.58596 1.57457 -1.00103 0.10108 -2.00266
193 1 12.7554 5.94406 16.2802 12.7554 5.94406 -0.515788 -2.06361 1.99086 -0.0229266
196 1 13.0174 6.42795 0.571229 13.0174 6.42795 0.571229 1.22179 -1.03761 0.457341
194 1 14.3182 7.52225 16.0192 14.3182 7.52225 -0.776775 2.56918 0.150625 -1.30765
195 1 14.222 6.39582 0.694513 14.222 6.39582 0.694513 0.343842 0.269071 1.21782
197 1 15.1107 6.30576 0.278922 15.1107 6.30576 0.278922 2.97028 -0.147779 0.734154
200 1 15.2041 7.25229 0.770323 15.2041 7.25229 0.770323 1.66244 -1.3954 0.0923166
198 1 15.9925 6.64301 16.5669 15.9925 6.64301 -0.229085 2.61096 -2.52551 -1.71557
199 1 15.9491 6.52861 1.03279 15.9491 6.52861 1.03279 -0.23742 2.83942 -0.142399
201 1 0.341908 7.96251 0.486354 0.341908 7.96251 0.486354 1.07855 1.34088 -0.0753365
203 1 0.956715 8.75393 0.556852 0.956715 8.75393 0.556852 0.559812 0.142238 -0.0842781
205 1 1.82734 9.0055 16.7935 1.82734 9.0055 -0.0024414 -0.039457 1.1044 -0.630878
207 1 3.01533 9.24319 0.66371 3.01533 9.24319 0.66371 3.3489 -0.165981 2.495
209 1 2.43227 8.09987 0.471692 2.43227 8.09987 0.471692 -2.23908 0.305684 -1.04866
211 1 3.5393 7.87449 0.669165 3.5393 7.87449 0.669165 -1.20752 0.0983038 -0.462325
213 1 5.47157 9.25843 0.186497 5.47157 9.25843 0.186497 -1.60427 -1.31871 -1.43842
215 1 5.3143 8.25142 1.09978 5.3143 8.25142 1.09978 -0.984728 0.727795 -1.13458
217 1 7.38413 8.39547 0.485951 7.38413 8.39547 0.485951 -0.912019 1.28454 2.35062
219 1 8.27355 8.03075 0.745661 8.27355 8.03075 0.745661 -1.00006 -0.0232363 0.461199
221 1 8.88691 8.79638 0.172862 8.88691 8.79638 0.172862 -0.319883 3.12888 1.24944
223 1 10.0988 8.72378 0.391843 10.0988 8.72378 0.391843 -0.376433 -0.20495 -0.902835
225 1 9.87944 8.72041 16.1647 9.87944 8.72041 -0.631259 1.18274 -2.49409 -0.818977
227 1 10.8631 9.32328 0.690886 10.8631 9.32328 0.690886 -0.161769 1.90776 -0.563574
229 1 12.415 7.00796 16.6871 12.415 7.00796 -0.108844 2.67914 -0.184483 -0.017303
231 1 12.7494 9.76741 0.978905 12.7494 9.76741 0.978905 -0.852698 -0.455923 0.881927
233 1 13.2723 8.28864 16.6503 13.2723 8.28864 -0.145682 -0.132071 1.44719 0.285486
235 1 13.9493 7.2507 0.342272 13.9493 7.2507 0.342272 -0.405126 -1.05893 -0.775672
237 1 15.1845 8.16314 16.7422 15.1845 8.16314 -0.0537156 0.545378 -0.301533 -2.26818
239 1 16.0323 7.63795 0.0962123 16.0323 7.63795 0.0962123 -0.355881 -1.88947 0.213802
202 1 0.136323 10.5953 0.227327 0.136323 10.5953 0.227327 0.0920999 1.91465 1.19823
204 1 16.3987 8.6981 0.368347 -0.397214 8.6981 0.368347 -0.535051 0.341291 -0.697954
241 1 16.4473 9.7173 0.00243281 -0.348616 9.7173 0.00243281 1.44018 -1.14064 1.8977
243 1 16.0481 9.76926 0.994678 -0.747889 9.76926 0.994678 -1.55288 -1.24753 1.33549
206 1 2.71124 9.87369 16.075 2.71124 9.87369 -0.720989 -2.01744 1.73449 -2.29688
208 1 1.1868 10.3107 0.998359 1.1868 10.3107 0.998359 0.444773 0.133927 -1.52887
245 1 1.64761 9.69772 16.0128 1.64761 9.69772 -0.783189 0.933846 1.26838 -1.64819
247 1 2.17062 9.91328 0.45734 2.17062 9.91328 0.45734 1.69897 1.52381 0.643201
210 1 4.05918 9.43161 16.0361 4.05918 9.43161 -0.759841 -1.61926 0.398204 1.14729
212 1 4.04297 9.16929 0.303265 4.04297 9.16929 0.303265 -1.66502 0.960179 1.22443
249 1 3.75928 10.2795 16.5551 3.75928 10.2795 -0.240906 -1.1689 -0.759319 3.04284
251 1 4.71823 10.1127 0.381206 4.71823 10.1127 0.381206 0.405081 -0.126822 0.38605
214 1 5.58628 9.84185 0.934283 5.58628 9.84185 0.934283 0.569249 1.29299 -0.465777
216 1 4.69808 9.14469 1.03774 4.69808 9.14469 1.03774 1.78299 -0.703833 3.09379
253 1 5.22343 9.62844 16.0276 5.22343 9.62844 -0.768406 -0.553362 0.295209 -0.214067
255 1 5.49449 10.9232 0.524145 5.49449 10.9232 0.524145 1.60106 -0.796434 0.537529
218 1 7.85501 9.31255 16.6536 7.85501 9.31255 -0.14241 -0.513254 -0.108485 -0.866747
220 1 6.40964 8.62061 0.742455 6.40964 8.62061 0.742455 0.291339 1.133 1.00232
257 1 7.20778 10.2594 16.7206 7.20778 10.2594 -0.07539 1.55822 0.607929 -1.75273
259 1 7.15268 9.40687 0.745084 7.15268 9.40687 0.745084 0.12973 -2.41477 -1.10311
224 1 9.23031 8.92802 1.02704 9.23031 8.92802 1.02704 -1.17725 2.02507 0.55893
261 1 8.76803 10.2085 16.6202 8.76803 10.2085 -0.175759 -0.855216 -0.345051 -0.774372
222 1 9.74283 9.92603 16.3303 9.74283 9.92603 -0.465668 0.627113 -1.0024 -1.28482
228 1 9.56017 9.64692 0.44543 9.56017 9.64692 0.44543 -2.22076 -0.255133 -0.564055
263 1 9.16273 10.996 1.04473 9.16273 10.996 1.04473 0.835393 -0.598024 -0.712303
265 1 10.7823 10.3111 16.5335 10.7823 10.3111 -0.262479 1.11443 0.892558 1.84183
226 1 11.3694 9.2641 16.3504 11.3694 9.2641 -0.445517 0.292897 1.61979 -0.052508
232 1 11.9409 9.25222 0.597965 11.9409 9.25222 0.597965 1.28383 1.2888 0.699981
267 1 10.8305 10.3942 0.758181 10.8305 10.3942 0.758181 0.0515084 0.764226 -0.981147
269 1 11.9534 10.2814 0.0440444 11.9534 10.2814 0.0440444 -0.37433 1.59577 -0.703375
230 1 12.5873 9.49619 16.5982 12.5873 9.49619 -0.197727 -0.911895 0.257942 -0.547419
236 1 13.3897 8.92217 1.0561 13.3897 8.92217 1.0561 -0.0146875 0.433475 1.01392
271 1 12.783 10.6607 1.35921 12.783 10.6607 1.35921 0.3723 -0.972837 1.42546
273 1 12.8348 10.5537 0.289386 12.8348 10.5537 0.289386 1.00541 2.17856 0.805748
234 1 14.0734 9.25709 0.386611 14.0734 9.25709 0.386611 0.487863 -0.371963 0.263144
240 1 15.1623 9.04109 0.534099 15.1623 9.04109 0.534099 -2.12483 0.976853 -0.520308
275 1 13.643 10.1832 0.882512 13.643 10.1832 0.882512 -3.08462 -0.924522 -1.02425
277 1 15.0017 9.58661 1.32815 15.0017 9.58661 1.32815 1.77394 2.59005 -1.64099
238 1 0.489701 8.99939 16.3225 17.2857 8.99939 -0.473501 0.810773 0.988378 -0.218199
279 1 16.2918 8.99725 1.5221 16.2918 8.99725 1.5221 1.06169 -0.633464 0.319783
242 1 2.28449 11.5883 0.390306 2.28449 11.5883 0.390306 -1.05461 0.702418 2.24362
244 1 16.6324 10.7711 1.39526 -0.163598 10.7711 1.39526 -1.39058 -2.39046 -1.51247
281 1 0.607351 11.501 16.6779 0.607351 11.501 -0.118027 0.398473 -2.82121 -0.722837
283 1 1.68475 12.5289 0.235682 1.68475 12.5289 0.235682 0.142436 2.60158 1.29118
246 1 2.70115 10.8115 16.359 2.70115 10.8115 -0.436968 1.62193 0.479756 -0.320138
248 1 1.21705 11.4787 0.848841 1.21705 11.4787 0.848841 -1.90062 0.544186 -0.28003
285 1 2.79868 12.5006 0.280995 2.79868 12.5006 0.280995 0.186887 -0.287153 1.51529
287 1 2.2927 12.3233 1.12737 2.2927 12.3233 1.12737 -0.0604758 0.0741011 0.942424
250 1 5.05399 10.8013 16.2913 5.05399 10.8013 -0.504628 0.225805 0.226818 1.18655
252 1 3.26553 11.4175 0.477859 3.26553 11.4175 0.477859 -1.69782 -0.778728 1.86328
289 1 3.85364 12.2824 16.733 3.85364 12.2824 -0.0629876 2.02313 -0.252164 -1.28977
291 1 4.7491 12.3219 0.571439 4.7491 12.3219 0.571439 0.876762 -0.0321147 0.491283
254 1 7.16932 11.9904 16.3685 7.16932 11.9904 -0.427428 0.644797 -0.439121 0.112955
256 1 5.86618 12.0392 0.21855 5.86618 12.0392 0.21855 2.37022 -0.937838 3.10232
293 1 5.6476 13.2097 16.0697 5.6476 13.2097 -0.726217 0.783871 1.07586 -1.35898
295 1 6.45271 11.4901 0.754741 6.45271 11.4901 0.754741 -0.0671792 -0.36775 -1.12771
258 1 8.25906 12.1624 16.5598 8.25906 12.1624 -0.236157 2.30587 -1.26216 0.425194
260 1 6.45118 10.3541 0.617768 6.45118 10.3541 0.617768 -1.17625 -1.37167 0.724483
297 1 6.55101 12.8691 16.3437 6.55101 12.8691 -0.452222 -1.64293 2.07683 -0.032384
299 1 7.72702 11.1616 1.49978 7.72702 11.1616 1.49978 -2.09272 -1.52441 2.17271
264 1 7.85512 10.8278 0.477044 7.85512 10.8278 0.477044 0.302975 1.4514 0.973492
301 1 7.73442 13.0887 0.241216 7.73442 13.0887 0.241216 -1.22874 2.60354 -0.604862
262 1 8.73775 11.3782 16.7864 8.73775 11.3782 -0.00953704 -0.499187 -1.47404 -1.28664
268 1 9.91081 11.041 0.294363 9.91081 11.041 0.294363 1.39685 0.0621649 -0.300861
303 1 9.51404 12.0332 0.578959 9.51404 12.0332 0.578959 2.22657 2.44457 0.423264
305 1 9.29885 13.1634 0.795397 9.29885 13.1634 0.795397 -0.850111 -1.49113 0.419684
266 1 10.6099 11.3412 16.148 10.6099 11.3412 -0.647969 0.909467 -0.271895 2.40838
272 1 11.781 10.4635 0.977998 11.781 10.4635 0.977998 -0.416442 0.0302932 0.03885
307 1 10.9949 11.5065 0.385515 10.9949 11.5065 0.385515 0.899422 -0.300085 1.3633
309 1 12.4133 11.4516 0.325761 12.4133 11.4516 0.325761 -1.19348 -2.96371 -0.457378
270 1 13.6202 11.1953 16.6318 13.6202 11.1953 -0.164196 -1.18628 0.976827 -0.0780477
276 1 13.1979 11.4601 0.909754 13.1979 11.4601 0.909754 1.13674 0.181713 -0.941487
311 1 12.2708 11.6039 1.61147 12.2708 11.6039 1.61147 -0.370162 1.28887 1.18387
313 1 13.9116 12.0302 0.445102 13.9116 12.0302 0.445102 -0.825798 -0.0134859 0.613446
274 1 14.4481 10.7237 0.199426 14.4481 10.7237 0.199426 -1.19167 0.36283 0.216159
280 1 15.5304 11.1833 1.2767 15.5304 11.1833 1.2767 -0.205357 -0.529064 -1.04884
315 1 14.3004 11.6018 1.34289 14.3004 11.6018 1.34289 1.25544 0.305187 -1.92205
317 1 15.3184 11.1976 0.22747 15.3184 11.1976 0.22747 -0.395148 0.703469 0.734869
278 1 15.9408 10.4945 0.439927 15.9408 10.4945 0.439927 1.30668 -0.298062 -0.185858
319 1 16.0484 12.1102 0.774431 16.0484 12.1102 0.774431 -0.711135 -0.36749 0.250471
282 1 0.436999 12.9112 16.0557 0.436999 12.9112 -0.740213 -2.06741 -1.23908 -0.197725
284 1 0.794244 12.6209 0.743048 0.794244 12.6209 0.743048 1.99861 0.6129 -0.011842
321 1 0.786094 13.7161 0.0151253 0.786094 13.7161 0.0151253 -0.00416838 -1.76551 -0.0125671
323 1 1.78369 13.195 0.949586 1.78369 13.195 0.949586 0.333358 -1.78913 0.208298
286 1 4.07815 14.2183 16.5396 4.07815 14.2183 -0.256338 -1.92327 -0.191748 0.0191777
288 1 2.81187 13.4639 0.675735 2.81187 13.4639 0.675735 -0.0131255 0.191346 -0.50386
325 1 2.16978 13.6594 16.6523 2.16978 13.6594 -0.143687 0.740923 0.620244 -0.729806
327 1 2.51805 14.6577 0.782309 2.51805 14.6577 0.782309 -0.622629 1.5467 1.45129
290 1 4.3014 13.2074 0.105027 4.3014 13.2074 0.105027 1.0296 0.680525 0.223962
292 1 3.56039 12.1572 1.01413 3.56039 12.1572 1.01413 0.834032 -1.32356 -1.47667
329 1 3.95896 13.4284 1.04453 3.95896 13.4284 1.04453 1.49903 1.69028 -2.60449
331 1 4.16278 12.6655 1.70579 4.16278 12.6655 1.70579 -0.634899 0.682577 -2.09901
294 1 6.44748 12.9715 0.777555 6.44748 12.9715 0.777555 0.210562 -0.0784325 0.236556
296 1 5.14346 12.5963 1.49511 5.14346 12.5963 1.49511 -1.19664 -0.47682 0.522013
333 1 6.29298 14.0436 15.8098 6.29298 14.0436 -0.986135 0.0233124 2.46112 0.747313
335 1 6.53581 14.5036 0.882728 6.53581 14.5036 0.882728 0.957316 0.28536 0.360854
298 1 7.28039 12.1426 1.23665 7.28039 12.1426 1.23665 0.626805 -0.469132 0.876386
300 1 7.67833 12.9165 1.96487 7.67833 12.9165 1.96487 -0.495921 -0.0696327 -1.56008
337 1 6.78155 13.7881 16.6844 6.78155 13.7881 -0.111524 -0.732901 1.08277 -1.97778
339 1 7.29775 13.4079 1.12809 7.29775 13.4079 1.12809 -1.60476 -0.177536 -0.466393
304 1 8.36201 11.5975 0.885723 8.36201 11.5975 0.885723 -0.847127 3.0456 0.89945
341 1 7.68604 14.065 0.369559 7.68604 14.065 0.369559 -0.973411 -0.696043 -0.497183
302 1 8.77189 13.3185 16.7167 8.77189 13.3185 -0.0792219 0.949039 1.38311 1.6695
308 1 9.43671 14.1215 1.31916 9.43671 14.1215 1.31916 -0.0814976 0.626765 -0.505904
343 1 8.30359 12.6747 0.985133 8.30359 12.6747 0.985133 -0.156118 -1.17278 1.00035
345 1 9.84009 12.8476 16.7532 9.84009 12.8476 -0.0427122 -2.75885 -0.12124 -0.97351
306 1 10.8771 12.4778 16.4706 10.8771 12.4778 -0.325336 0.289856 -0.110589 -1.35825
312 1 11.6821 12.6325 1.25436 11.6821 12.6325 1.25436 -1.5807 1.45737 -3.44385
347 1 10.6693 13.5975 0.720992 10.6693 13.5975 0.720992 -1.442 -0.357823 -0.389424
349 1 11.4214 13.1082 0.400535 11.4214 13.1082 0.400535 -2.69208 2.09188 -1.06007
310 1 12.9376 12.3164 0.0982416 12.9376 12.3164 0.0982416 0.405078 0.311906 -1.12545
316 1 13.8338 13.0705 0.999391 13.8338 13.0705 0.999391 1.39293 0.611541 0.609758
351 1 12.6554 13.1714 0.499274 12.6554 13.1714 0.499274 1.02388 0.807202 2.37337
353 1 13.4321 13.0418 16.5769 13.4321 13.0418 -0.219108 1.77508 0.959221 -1.29568
314 1 14.5887 12.7314 16.2376 14.5887 12.7314 -0.55839 1.97536 0.363604 -0.389118
320 1 14.845 12.4149 0.612696 14.845 12.4149 0.612696 0.968864 -1.31509 -1.11703
355 1 14.3711 13.4384 0.175541 14.3711 13.4384 0.175541 -0.393386 -1.0374 -0.0677681
357 1 15.5811 13.118 0.160793 15.5811 13.118 0.160793 -0.48171 0.440215 -1.92228
318 1 16.7586 12.9333 0.230134 16.7586 12.9333 0.230134 0.949306 -0.266169 1.19876
359 1 16.457 14.1041 1.20743 16.457 14.1041 1.20743 1.05099 2.25242 -0.051833
322 1 1.42246 14.534 16.5129 1.42246 14.534 -0.28302 0.933079 -0.861043 1.58883
324 1 0.496368 14.5583 0.740413 0.496368 14.5583 0.740413 0.899051 0.838737 3.83061
361 1 0.510689 14.0825 15.7581 0.510689 14.0825 -1.03786 0.776788 -2.18755 -2.05381
363 1 1.14125 15.5691 0.360067 1.14125 15.5691 0.360067 1.01929 0.281095 0.684421
326 1 2.66686 14.3793 15.9891 2.66686 14.3793 -0.806839 1.20711 -0.919263 1.14364
328 1 1.31907 14.107 0.935449 1.31907 14.107 0.935449 -2.3764 1.92645 2.10241
365 1 1.98407 15.2747 15.8916 1.98407 15.2747 -0.904382 0.383431 0.809942 1.38782
367 1 3.67875 14.3962 0.662655 3.67875 14.3962 0.662655 0.461484 -0.937682 0.982577
330 1 4.98071 13.3865 0.917884 4.98071 13.3865 0.917884 1.03294 -1.05307 0.911282
332 1 3.22277 13.8905 1.69186 3.22277 13.8905 1.69186 0.40761 -1.00716 -0.507785
369 1 4.01691 15.3357 0.230539 4.01691 15.3357 0.230539 -0.302184 -0.831361 -1.07833
371 1 4.08868 14.8222 1.64453 4.08868 14.8222 1.64453 -1.83297 -1.00506 0.541608
334 1 5.42629 14.9322 16.4815 5.42629 14.9322 -0.314425 0.307333 0.591194 0.690941
336 1 5.82802 13.9984 0.450573 5.82802 13.9984 0.450573 -0.595315 1.19526 -0.2944
373 1 4.62155 14.4773 0.573904 4.62155 14.4773 0.573904 1.67871 -0.428577 0.878122
375 1 5.6104 15.0193 0.885819 5.6104 15.0193 0.885819 -1.7193 -0.0846826 0.411293
338 1 7.49789 14.9488 16.6645 7.49789 14.9488 -0.13144 -0.514729 0.864348 -0.555847
340 1 6.50637 15.1334 16.6577 6.50637 15.1334 -0.138287 -2.9717 1.0081 0.397357
377 1 8.08056 16.4244 0.76532 8.08056 16.4244 0.76532 -2.31998 1.03941 3.01323
379 1 7.636 14.8679 1.08487 7.636 14.8679 1.08487 0.585756 -0.0366502 -0.299068
344 1 8.48162 13.7567 0.836219 8.48162 13.7567 0.836219 0.057837 0.905765 -0.713285