ITEM: TIMESTEP
50
ITEM: NUMBER OF ATOMS
4000
ITEM: BOX BOUNDS pp pp pp
0.0000000000000000e+00 1.6795961913825074e+01
0.0000000000000000e+00 1.6795961913825074e+01
0.0000000000000000e+00 1.6795961913825074e+01
ITEM: ATOMS id type x y z xu yu zu vx vy vz
1 1 16.7371 0.0145803 16.7624 -0.058884 0.0145803 -0.0335916 0.0519092 -0.638613 2.08023
2 1 0.714224 0.828372 0.110566 0.714224 0.828372 0.110566 -1.67919 -1.6797 -0.32424
3 1 0.933974 16.7496 0.664976 0.933974 -0.0463362 0.664976 0.402138 -0.765896 -0.651432
4 1 16.5763 0.650234 0.830793 -0.219636 0.650234 0.830793 -2.77497 0.469442 -0.723435
5 1 1.69571 0.0635623 16.6758 1.69571 0.0635623 -0.12014 2.22434 -0.221796 -0.915433
6 1 2.51778 0.966818 16.5116 2.51778 0.966818 -0.284323 -0.230918 0.195312 2.01217
7 1 2.51265 0.0541393 0.328342 2.51265 0.0541393 0.328342 1.50704 -0.360023 -1.48348
8 1 1.56743 0.709609 0.853836 1.56743 0.709609 0.853836 -2.50419 1.64268 -1.84086
9 1 3.44763 16.6416 16.8506 3.44763 -0.154405 0.0546256 1.46435 -1.60648 1.29838
10 1 4.19271 0.964242 16.7028 4.19271 0.964242 -0.0931795 -0.863183 1.10267 -0.00718739
11 1 4.29684 16.6783 0.679085 4.29684 -0.117661 0.679085 0.172001 2.07645 -1.50065
12 1 3.57476 0.559133 0.870314 3.57476 0.559133 0.870314 -1.09256 -0.240753 -0.401636
13 1 5.33656 16.4886 0.134938 5.33656 -0.30733 0.134938 0.443041 0.37643 -2.32832
14 1 5.90925 0.970375 16.6744 5.90925 0.970375 -0.121562 -0.433418 0.0776889 -0.842457
15 1 6.14943 0.434692 0.719749 6.14943 0.434692 0.719749 0.575836 1.41306 0.676086
16 1 4.9672 0.822885 0.595158 4.9672 0.822885 0.595158 1.10357 1.45763 -1.77433
17 1 6.82522 0.163028 16.8753 6.82522 0.163028 0.0793852 0.0519323 -0.537206 3.4933
18 1 7.84446 0.675077 0.0937128 7.84446 0.675077 0.0937128 -0.0731201 4.10906 1.21333
19 1 7.84863 16.7273 1.01048 7.84863 -0.0686742 1.01048 -0.312239 0.928577 0.0952953
20 1 6.93531 1.33741 0.677698 6.93531 1.33741 0.677698 -0.887242 -1.10073 0.394271
21 1 8.63785 0.0935952 0.0245472 8.63785 0.0935952 0.0245472 3.1551 -1.67347 0.339612
24 1 8.50947 0.97094 0.85759 8.50947 0.97094 0.85759 -1.56601 0.18681 0.754605
22 1 9.02252 1.09212 16.7989 9.02252 1.09212 0.0029677 -0.509448 0.495534 2.33121
23 1 9.06479 16.806 1.01545 9.06479 0.0100061 1.01545 -0.19089 0.340069 -1.18291
25 1 10.229 0.317676 0.234558 10.229 0.317676 0.234558 -1.23817 3.34103 0.259622
28 1 10.0969 0.838959 1.14178 10.0969 0.838959 1.14178 0.224422 -1.65029 0.101695
26 1 10.9897 1.05074 0.198571 10.9897 1.05074 0.198571 1.17365 -0.165712 0.850622
27 1 10.9392 3.19338e-05 0.837892 10.9392 3.19338e-05 0.837892 0.819239 -0.302253 1.87872
29 1 11.7958 0.127895 0.00571912 11.7958 0.127895 0.00571912 1.30715 0.65461 -1.18415
32 1 12.0079 1.13292 0.945984 12.0079 1.13292 0.945984 -1.53626 -0.319036 -1.07068
30 1 12.8213 0.640266 16.6435 12.8213 0.640266 -0.152482 2.90138 1.68701 0.025104
31 1 12.6753 0.237057 1.20443 12.6753 0.237057 1.20443 0.590242 0.477206 0.986626
33 1 12.9435 16.3559 0.120199 12.9435 -0.440068 0.120199 -0.833546 -0.134254 0.860829
36 1 13.4814 0.806267 1.34982 13.4814 0.806267 1.34982 -1.18505 -1.85793 1.39915
34 1 14.3937 0.913735 16.6429 14.3937 0.913735 -0.153081 0.837282 -0.072651 -2.56734
35 1 13.8294 0.225888 0.522541 13.8294 0.225888 0.522541 -2.22684 -0.320631 -0.0811433
37 1 15.278 0.109437 16.6339 15.278 0.109437 -0.162067 -1.24207 0.200089 1.67553
40 1 15.0611 0.402528 0.856261 15.0611 0.402528 0.856261 -0.525539 -2.16223 0.57983
38 1 16.0137 0.879125 16.4068 16.0137 0.879125 -0.389143 -1.26779 -0.68465 1.04415
39 1 15.8826 16.5571 0.985747 15.8826 -0.23888 0.985747 -0.318424 -0.190357 -2.70863
41 1 16.7244 1.55827 16.7362 -0.0716114 1.55827 -0.0597968 0.556297 -1.19182 0.780508
42 1 0.963712 2.36376 0.174562 0.963712 2.36376 0.174562 1.39268 0.511245 -0.69016
43 1 0.569988 1.54548 0.815152 0.569988 1.54548 0.815152 -0.178132 -0.0113098 0.465793
44 1 16.7526 2.51318 0.761977 -0.0433992 2.51318 0.761977 -0.35846 -1.8803 0.749925
45 1 1.79576 1.81658 0.208827 1.79576 1.81658 0.208827 0.0312171 -0.618674 -0.756193
46 1 2.69 2.80025 16.6044 2.69 2.80025 -0.191557 1.67638 -2.49196 -0.623421
47 1 2.58555 1.52438 0.710624 2.58555 1.52438 0.710624 0.106052 -1.39595 -1.27998
48 1 1.72752 2.24725 1.16687 1.72752 2.24725 1.16687 0.647357 0.765474 1.60602
49 1 3.27336 1.95918 16.7115 3.27336 1.95918 -0.0845077 0.618814 -1.42246 -0.806429
50 1 4.05503 2.60487 0.0377648 4.05503 2.60487 0.0377648 -2.07342 0.0288351 -0.687107
51 1 4.54991 2.07266 0.824779 4.54991 2.07266 0.824779 0.984465 0.891018 0.235146
52 1 3.2079 2.47058 0.736182 3.2079 2.47058 0.736182 0.586823 -1.44464 -1.3457
53 1 5.07088 1.84803 16.5827 5.07088 1.84803 -0.213272 0.704522 -0.0559265 -2.78827
54 1 6.11249 2.39456 -0.0441987 6.11249 2.39456 -0.0441987 -0.157908 -0.205982 -0.89688
55 1 5.88873 2.00457 0.949097 5.88873 2.00457 0.949097 0.188757 -0.302825 0.911579
56 1 5.11048 2.97791 0.763593 5.11048 2.97791 0.763593 0.24431 -0.957102 0.578183
57 1 6.86217 1.77521 16.6838 6.86217 1.77521 -0.112181 -0.556825 1.39122 1.13555
58 1 7.67585 2.47803 16.5184 7.67585 2.47803 -0.277521 0.532806 -0.383342 -0.0505019
59 1 7.61391 1.86438 1.2293 7.61391 1.86438 1.2293 0.139843 -0.345716 1.45726
60 1 6.72738 2.51309 1.0854 6.72738 2.51309 1.0854 0.262579 0.885591 -0.97028
61 1 8.14603 1.67355 0.292177 8.14603 1.67355 0.292177 -0.756443 -1.63888 1.68072
64 1 8.45966 2.41453 0.959609 8.45966 2.41453 0.959609 -0.504417 0.608685 -0.721452
62 1 8.95429 2.44207 0.0587941 8.95429 2.44207 0.0587941 -0.169573 0.0697009 0.0277939
63 1 9.19647 1.73249 1.05193 9.19647 1.73249 1.05193 -0.771899 -1.99888 1.11048
65 1 10.0243 1.35151 -0.0333274 10.0243 1.35151 -0.0333274 0.676846 -0.348777 -0.832264
68 1 9.99966 2.53843 0.662543 9.99966 2.53843 0.662543 -1.74035 -0.512071 -0.229735
66 1 10.725 2.07883 0.215865 10.725 2.07883 0.215865 -0.789374 -1.66916 -1.13732
67 1 10.8895 1.47201 1.25966 10.8895 1.47201 1.25966 -1.35337 -1.04873 0.0103018
69 1 11.666 1.94996 16.6816 11.666 1.94996 -0.114334 -0.129678 2.33018 0.909137
72 1 12.0952 2.18254 0.813203 12.0952 2.18254 0.813203 2.12305 -1.24293 0.759222
70 1 12.7146 2.50593 16.7203 12.7146 2.50593 -0.0756515 0.652153 -1.3878 -0.336275
71 1 12.9253 1.56158 0.774099 12.9253 1.56158 0.774099 1.05642 -1.20085 -0.722379
73 1 13.6121 1.67526 16.7512 13.6121 1.67526 -0.044749 -0.458516 -0.785302 1.0206
76 1 13.0609 2.59601 0.955819 13.0609 2.59601 0.955819 -1.09989 -0.530513 -0.512611
74 1 14.5013 2.47367 0.248022 14.5013 2.47367 0.248022 1.15984 0.346969 0.472503
75 1 14.2757 1.21716 0.992948 14.2757 1.21716 0.992948 -0.729767 -1.41826 0.145269
77 1 15.4096 1.79955 16.6171 15.4096 1.79955 -0.178897 -0.482908 -0.575237 -0.591061
80 1 15.5581 2.45354 0.716793 15.5581 2.45354 0.716793 2.8766 -1.89759 -1.08323
78 1 16.337 2.49339 16.4657 16.337 2.49339 -0.330295 -1.35293 -0.588479 0.00424726
79 1 15.9836 1.47126 0.606256 15.9836 1.47126 0.606256 1.57653 -0.156421 0.414387
81 1 16.8096 3.40714 16.4938 0.013608 3.40714 -0.302145 0.995175 -1.00289 0.295544
82 1 1.11753 4.26041 0.0658749 1.11753 4.26041 0.0658749 0.974707 0.724177 -0.116028
83 1 0.606804 3.28952 0.442654 0.606804 3.28952 0.442654 -1.1794 0.0902743 0.373087
84 1 0.260789 4.14858 0.800406 0.260789 4.14858 0.800406 0.809161 -0.788163 0.0935855
85 1 1.76391 3.24595 16.8051 1.76391 3.24595 0.00914185 -2.0698 -0.547754 -0.310616
86 1 2.38831 4.47539 16.6511 2.38831 4.47539 -0.144889 -0.196806 2.4582 -0.275959
87 1 2.48283 3.35299 0.618498 2.48283 3.35299 0.618498 0.116573 -0.935036 -1.06809
88 1 1.73842 4.42958 0.807973 1.73842 4.42958 0.807973 1.54819 -0.212516 -0.275531
89 1 3.35818 3.7662 16.7626 3.35818 3.7662 -0.0333271 2.00148 -1.38816 2.3868
90 1 4.37688 4.02265 0.097598 4.37688 4.02265 0.097598 1.84579 -0.990901 -0.134801
91 1 4.00733 2.97838 0.922276 4.00733 2.97838 0.922276 0.386754 -1.99825 1.547
92 1 3.3652 3.69428 0.953259 3.3652 3.69428 0.953259 -0.846884 -1.17673 0.158447
93 1 5.00766 3.23065 16.6215 5.00766 3.23065 -0.174442 2.31744 -0.228615 -1.84605
94 1 5.72385 4.38007 16.3996 5.72385 4.38007 -0.396396 0.705632 0.429063 -1.85461
95 1 5.91298 3.56422 0.290854 5.91298 3.56422 0.290854 1.12093 -0.334731 -2.45377
96 1 5.13129 4.24348 0.731166 5.13129 4.24348 0.731166 0.447208 0.160547 -2.01183
97 1 7.09444 3.18079 -0.00951318 7.09444 3.18079 -0.00951318 1.14392 0.921332 -1.69141
98 1 7.67181 4.18139 16.4806 7.67181 4.18139 -0.315389 1.02119 0.305467 1.9581
99 1 7.75412 3.31602 0.807468 7.75412 3.31602 0.807468 -0.939772 -0.672376 -0.245882
100 1 6.79136 4.03102 0.532645 6.79136 4.03102 0.532645 1.14776 0.810003 -2.1361
101 1 8.51915 3.47291 16.505 8.51915 3.47291 -0.290974 -1.12295 0.0371406 -0.13409
104 1 8.34699 4.296 0.648314 8.34699 4.296 0.648314 -1.25419 0.790586 -0.139679
102 1 9.73648 4.72351 0.160426 9.73648 4.72351 0.160426 2.58153 0.752761 -1.12617
103 1 8.85294 3.30921 0.706617 8.85294 3.30921 0.706617 0.180304 -1.01829 -1.2774
105 1 10.043 3.51127 0.274317 10.043 3.51127 0.274317 0.636747 -1.22573 0.5059
108 1 9.6374 4.07325 0.985335 9.6374 4.07325 0.985335 -2.21592 2.51024 0.888378
106 1 10.9989 4.08971 16.6993 10.9989 4.08971 -0.0967024 3.85508 -2.00369 0.708936
107 1 11.0395 3.03583 0.78268 11.0395 3.03583 0.78268 -1.02085 0.546782 -0.768382
109 1 11.8416 2.99834 0.162554 11.8416 2.99834 0.162554 0.104482 -1.09245 -0.987065
112 1 11.7133 4.14846 0.786124 11.7133 4.14846 0.786124 1.91762 -2.40484 0.0495464
110 1 12.68 4.14977 0.29093 12.68 4.14977 0.29093 -2.19224 0.232951 1.32489
111 1 12.3252 3.34501 1.18067 12.3252 3.34501 1.18067 -1.29638 -1.03136 0.497319
113 1 13.5543 3.42525 0.380371 13.5543 3.42525 0.380371 2.0537 0.125125 1.76179
116 1 13.2015 4.25913 1.07165 13.2015 4.25913 1.07165 -2.23504 -1.93011 3.945
114 1 14.278 4.22717 0.31641 14.278 4.22717 0.31641 -0.244885 -0.864617 -0.233518
115 1 14.4435 3.36976 0.864038 14.4435 3.36976 0.864038 -0.364155 -0.507426 -1.28492
117 1 15.1774 3.40821 0.152268 15.1774 3.40821 0.152268 0.335826 -1.2561 -0.322502
120 1 15.2785 4.31388 0.583489 15.2785 4.31388 0.583489 1.6073 -0.431958 -0.713996
118 1 15.9677 4.03482 16.4444 15.9677 4.03482 -0.351549 1.56291 1.89043 -1.83706
119 1 16.0284 3.48339 0.563328 16.0284 3.48339 0.563328 2.00419 0.238941 -0.0925143
121 1 16.6973 4.95563 16.8463 -0.0986874 4.95563 0.0503093 -0.86996 1.33124 2.34059
122 1 0.723109 5.83317 0.0783673 0.723109 5.83317 0.0783673 -1.07798 0.44314 0.340172
123 1 0.941877 4.95041 0.754939 0.941877 4.95041 0.754939 -1.71039 0.306071 -0.0986999
124 1 0.0640152 5.41233 0.968673 0.0640152 5.41233 0.968673 0.575012 0.0911478 0.821352
125 1 1.6388 5.16935 0.155028 1.6388 5.16935 0.155028 1.36035 -0.0245353 -0.712975
126 1 2.65033 6.21841 0.255632 2.65033 6.21841 0.255632 -0.0180784 1.97648 0.845856
127 1 2.84369 4.81247 0.852654 2.84369 4.81247 0.852654 -0.0479524 0.390629 1.03475
128 1 1.38232 5.91291 0.980432 1.38232 5.91291 0.980432 -1.86389 0.733191 -0.996049
129 1 3.51647 5.10995 0.0630822 3.51647 5.10995 0.0630822 1.00663 0.875485 0.812483
130 1 4.43647 6.19698 0.0795718 4.43647 6.19698 0.0795718 -0.821585 2.00972 -0.513953
131 1 4.24714 4.75759 0.783197 4.24714 4.75759 0.783197 -2.32332 -0.805526 -0.784583
132 1 3.63798 5.80584 0.973549 3.63798 5.80584 0.973549 2.05971 0.832386 1.64415
133 1 5.09724 4.94585 0.0661857 5.09724 4.94585 0.0661857 2.0956 -0.134645 0.633004
134 1 5.63663 5.97503 16.8549 5.63663 5.97503 0.0589734 -1.12876 0.88027 2.57931
135 1 5.50784 5.28138 1.11863 5.50784 5.28138 1.11863 0.193824 1.15931 0.913108
136 1 4.72725 5.83803 1.30788 4.72725 5.83803 1.30788 -2.16446 -1.53327 -0.681994
137 1 6.13071 4.95605 0.359516 6.13071 4.95605 0.359516 -1.75118 -0.336752 0.679718
138 1 7.46084 5.24961 0.154657 7.46084 5.24961 0.154657 0.334821 -2.67878 0.163323
139 1 7.83954 5.14632 1.1645 7.83954 5.14632 1.1645 0.857987 -0.90706 -0.129715
140 1 6.42691 5.89351 0.538714 6.42691 5.89351 0.538714 -2.04636 -0.143768 -1.18077
141 1 8.64401 5.31297 -0.052687 8.64401 5.31297 -0.052687 -0.0415137 -2.81908 0.0898716
144 1 8.47784 6.18509 0.86121 8.47784 6.18509 0.86121 -0.993959 1.80091 0.637102
142 1 9.7465 5.85596 0.0274517 9.7465 5.85596 0.0274517 0.81282 -0.642398 -0.977168
143 1 9.22406 5.16998 0.928756 9.22406 5.16998 0.928756 -2.01035 -0.0916765 -0.924991
145 1 10.5025 5.17228 16.3965 10.5025 5.17228 -0.39949 4.30154 -0.0273386 -0.856093
148 1 10.1947 6.06686 0.938369 10.1947 6.06686 0.938369 0.97553 -0.928752 -0.583373
146 1 10.8788 5.95319 0.0522356 10.8788 5.95319 0.0522356 0.203151 -0.22624 0.272053
147 1 10.8349 4.83499 0.551968 10.8349 4.83499 0.551968 -0.250199 0.288408 -3.44691
149 1 11.8723 4.91204 0.222083 11.8723 4.91204 0.222083 -0.382355 1.39117 -1.36546
152 1 11.7488 6.21968 0.997629 11.7488 6.21968 0.997629 -0.534344 2.22461 2.42634
150 1 12.2265 5.91004 0.0997347 12.2265 5.91004 0.0997347 -0.512869 1.02045 -0.465112
151 1 12.7112 5.41032 0.937933 12.7112 5.41032 0.937933 -0.776501 -1.40367 -0.176452
153 1 13.4959 4.78079 0.361292 13.4959 4.78079 0.361292 -1.54898 0.146412 -1.33062
156 1 13.5758 6.05687 0.838585 13.5758 6.05687 0.838585 0.366205 0.865686 -0.263521
154 1 14.0698 5.70325 16.7957 14.0698 5.70325 -0.000295195 1.82129 -0.613262 1.2711
155 1 14.4385 5.15306 0.659956 14.4385 5.15306 0.659956 0.673442 1.39702 2.03455
157 1 15.2376 4.87152 16.435 15.2376 4.87152 -0.360966 1.34461 1.30669 -3.5331
160 1 15.1229 5.79461 0.783346 15.1229 5.79461 0.783346 0.479241 -1.65075 -0.674478
158 1 15.9167 5.82889 0.0462708 15.9167 5.82889 0.0462708 -0.942033 -0.847874 -0.985257
159 1 15.9512 4.93744 0.801842 15.9512 4.93744 0.801842 -0.847773 -0.274691 -1.14143
161 1 0.101097 6.48164 0.577729 0.101097 6.48164 0.577729 -0.102419 -0.523849 1.86075
162 1 0.900841 7.26693 0.306682 0.900841 7.26693 0.306682 1.4643 -1.3678 1.69164
163 1 1.01151 6.90151 1.27894 1.01151 6.90151 1.27894 0.605151 -0.22773 1.39155
164 1 -0.0228381 7.40111 1.23485 -0.0228381 7.40111 1.23485 -0.216884 1.99427 1.97102
165 1 1.87547 6.86564 0.384476 1.87547 6.86564 0.384476 0.429996 2.41435 0.480519
166 1 2.23435 7.7532 0.00358578 2.23435 7.7532 0.00358578 -0.444486 -0.254367 -1.1183
167 1 2.32025 6.48485 1.28542 2.32025 6.48485 1.28542 0.0937853 -1.20088 2.38287
168 1 1.69085 7.87004 0.961996 1.69085 7.87004 0.961996 0.316681 1.03181 0.0977548
169 1 3.3804 6.93788 0.409057 3.3804 6.93788 0.409057 -0.973399 0.122278 1.32645
170 1 3.85513 7.8577 0.11802 3.85513 7.8577 0.11802 -0.518274 -2.76641 0.513749
171 1 4.31609 6.83773 0.855327 4.31609 6.83773 0.855327 0.750825 2.84265 1.5476
172 1 3.26724 7.75483 1.06708 3.26724 7.75483 1.06708 -0.107192 3.38561 0.408362
173 1 5.21397 6.9244 16.5946 5.21397 6.9244 -0.201347 1.28598 1.86815 -1.00012
174 1 5.87785 7.86841 0.0651818 5.87785 7.86841 0.0651818 -0.340059 0.179864 2.08395
175 1 5.524 6.88313 0.767745 5.524 6.88313 0.767745 -0.585458 -1.16654 0.897918
176 1 5.03151 7.77092 0.73433 5.03151 7.77092 0.73433 -4.21917 0.736972 -0.502314
177 1 6.34948 6.85435 16.7023 6.34948 6.85435 -0.0936348 -1.40677 0.398231 0.728199
178 1 7.43319 7.82404 16.5992 7.43319 7.82404 -0.19675 1.40283 0.813119 -1.72192
179 1 7.58417 6.6867 0.789904 7.58417 6.6867 0.789904 2.20309 1.452 -0.881208
180 1 6.43638 7.37348 0.955129 6.43638 7.37348 0.955129 -0.905855 0.452578 2.34849
181 1 8.41179 6.89925 0.0924323 8.41179 6.89925 0.0924323 0.347171 -0.848489 -1.85216
184 1 8.68178 7.42706 0.863989 8.68178 7.42706 0.863989 0.389206 -1.43497 -2.19836
182 1 9.08542 7.72989 16.6773 9.08542 7.72989 -0.118684 0.689252 -0.965352 -1.7696
183 1 9.30965 6.64067 0.489296 9.30965 6.64067 0.489296 -0.853783 0.119595 -0.32731
185 1 10.1795 6.69437 16.7419 10.1795 6.69437 -0.0540237 -0.228705 0.884932 -0.718695
188 1 10.1864 7.76755 1.14399 10.1864 7.76755 1.14399 -0.418831 0.80807 0.350567
186 1 10.7357 7.66373 16.7877 10.7357 7.66373 -0.00822948 -0.0285005 1.4351 0.784912
187 1 10.7116 6.93315 0.805064 10.7116 6.93315 0.805064 -0.767725 -0.578342 0.572101
189 1 11.5689 6.72429 0.0758734 11.5689 6.72429 0.0758734 -1.03127 2.44653 0.0804443
192 1 11.4706 7.91788 0.685815 11.4706 7.91788 0.685815 0.870458 3.20829 1.2965
190 1 12.334 7.62659 0.294168 12.334 7.62659 0.294168 -1.41563 -1.29193 -1.3439
191 1 12.6692 6.61194 0.791778 12.6692 6.61194 0.791778 1.00717 2.06949 -0.798223
193 1 13.0129 6.59857 16.736 13.0129 6.59857 -0.0599656 0.478037 -1.75447 -0.728783
196 1 13.4197 7.43143 0.691056 13.4197 7.43143 0.691056 0.657787 -0.126185 1.56232
194 1 14.2907 7.45346 16.6073 14.2907 7.45346 -0.188643 -0.23699 -0.79539 -0.699962
195 1 14.3862 6.67816 0.549923 14.3862 6.67816 0.549923 -0.333592 1.56411 0.210983
197 1 15.0237 6.52882 16.465 15.0237 6.52882 -0.330974 -0.0566444 0.647209 -0.082496
200 1 14.8307 7.52512 0.860626 14.8307 7.52512 0.860626 0.236534 -1.1801 -0.550869
198 1 15.9959 7.06688 16.6119 15.9959 7.06688 -0.18409 -2.07172 -2.80335 0.790458
199 1 15.5904 6.75708 0.644127 15.5904 6.75708 0.644127 0.0751803 0.478332 -2.23772
201 1 16.6545 8.02696 0.202412 -0.141481 8.02696 0.202412 -0.834274 0.483009 -0.726544
203 1 0.853432 8.37167 0.664963 0.853432 8.37167 0.664963 -1.43741 -1.2291 0.0673781
205 1 1.93955 8.8165 16.7596 1.93955 8.8165 -0.0363242 0.173595 -1.8189 1.01908
207 1 2.56734 8.47982 0.88439 2.56734 8.47982 0.88439 1.46846 -0.241559 1.70555
209 1 3.18041 8.61121 16.7629 3.18041 8.61121 -0.0330582 -1.74348 0.355698 -0.441907
211 1 4.18585 8.48812 1.04295 4.18585 8.48812 1.04295 -0.951157 1.69724 1.65604
213 1 5.00745 8.72035 16.7844 5.00745 8.72035 -0.0115249 0.196735 0.281556 -0.327707
215 1 5.76046 8.74534 0.637476 5.76046 8.74534 0.637476 1.00422 0.0349891 -0.254736
217 1 6.5781 8.60659 16.753 6.5781 8.60659 -0.0429292 -0.648977 -1.9129 0.506227
219 1 7.34151 8.43863 0.684317 7.34151 8.43863 0.684317 1.17261 0.106612 -0.637232
221 1 8.61006 8.53709 0.233326 8.61006 8.53709 0.233326 2.08019 0.31119 0.495773
223 1 9.42522 8.34254 1.01461 9.42522 8.34254 1.01461 -0.627691 0.579536 1.18269
225 1 9.84168 8.52533 0.128692 9.84168 8.52533 0.128692 0.667422 0.105615 0.419508
227 1 10.7295 8.60257 0.942999 10.7295 8.60257 0.942999 0.340152 -0.223088 0.816528
229 1 11.6116 8.32866 16.5709 11.6116 8.32866 -0.22504 0.226862 -1.19965 0.920688
231 1 12.3917 8.83166 0.692065 12.3917 8.83166 0.692065 -1.52268 2.35505 -1.08567
233 1 13.3013 8.50075 16.7442 13.3013 8.50075 -0.0518083 0.108157 0.492151 0.584793
235 1 14.3095 8.34611 0.583331 14.3095 8.34611 0.583331 -0.0631789 1.42543 -0.766877
237 1 15.4134 8.26707 16.7028 15.4134 8.26707 -0.0931992 -1.18855 -1.9068 -0.829009
239 1 15.8963 8.21157 0.837122 15.8963 8.21157 0.837122 -1.77821 1.03685 -0.941125
202 1 1.0284 9.39835 0.181976 1.0284 9.39835 0.181976 0.945303 -0.981118 -0.689316
204 1 0.0217492 8.9745 0.569685 0.0217492 8.9745 0.569685 0.255392 -0.537384 -2.24581
241 1 16.682 9.93648 16.7787 -0.113972 9.93648 -0.0172902 0.992412 -1.30266 -0.337323
243 1 0.691568 9.87102 0.973535 0.691568 9.87102 0.973535 -0.76205 -0.434959 0.346776
206 1 2.5883 9.47766 16.7181 2.5883 9.47766 -0.0779048 2.56102 1.71921 1.2321
208 1 1.77636 9.36158 1.05327 1.77636 9.36158 1.05327 1.31734 1.3488 -1.60016
245 1 1.73211 9.94739 16.3085 1.73211 9.94739 -0.487478 -0.562122 -0.604443 -0.526477
247 1 2.30541 10.2325 0.921193 2.30541 10.2325 0.921193 1.48694 0.533833 -0.82932
210 1 4.20655 9.15523 0.166595 4.20655 9.15523 0.166595 -1.16132 0.205845 -1.56434
212 1 3.55076 9.27637 0.844539 3.55076 9.27637 0.844539 0.0814068 0.825404 2.51313
249 1 3.37054 10.0508 0.0744247 3.37054 10.0508 0.0744247 -0.687912 -0.533378 1.12549
251 1 4.53259 10.2674 1.01336 4.53259 10.2674 1.01336 0.931415 -0.15323 0.0158014
214 1 6.05856 9.52486 16.6947 6.05856 9.52486 -0.101249 2.07949 0.112737 -1.42156
216 1 4.9964 9.32932 1.08277 4.9964 9.32932 1.08277 -1.52118 -0.868288 0.53828
253 1 5.0229 9.97673 16.7137 5.0229 9.97673 -0.0822373 -0.610711 -2.7551 -0.488191
255 1 5.9943 10.0589 0.738021 5.9943 10.0589 0.738021 0.282728 0.897905 -1.19545
218 1 7.66841 9.20349 0.00627977 7.66841 9.20349 0.00627977 -0.776393 1.65503 0.350847
220 1 6.70485 9.38779 0.841167 6.70485 9.38779 0.841167 -0.17863 0.651539 0.797632
257 1 7.05483 10.5494 16.6735 7.05483 10.5494 -0.122421 1.07783 -0.488098 -0.419777
259 1 7.41103 10.0066 0.835917 7.41103 10.0066 0.835917 0.655133 1.35601 0.799901
224 1 8.14755 9.12173 1.02144 8.14755 9.12173 1.02144 0.0222933 1.21347 -0.094115
261 1 8.42614 9.79399 0.151525 8.42614 9.79399 0.151525 1.38952 0.578527 -0.578451
222 1 9.423 9.56365 16.494 9.423 9.56365 -0.301946 1.39576 -2.08697 -0.786189
228 1 9.72869 9.45612 0.720817 9.72869 9.45612 0.720817 -0.624633 2.47044 -2.7684
263 1 8.93996 10.3666 0.753221 8.93996 10.3666 0.753221 -0.572459 -0.670024 -0.70293
265 1 10.349 9.82181 16.5739 10.349 9.82181 -0.222031 0.231792 -0.679543 -2.24521
226 1 10.9132 9.05516 0.113129 10.9132 9.05516 0.113129 0.538189 -0.073371 0.992251
232 1 11.5926 9.60865 0.892579 11.5926 9.60865 0.892579 -0.0997348 -1.10517 -2.21964
267 1 10.6072 9.97589 0.739552 10.6072 9.97589 0.739552 0.296633 -0.603749 0.112283
269 1 11.5983 10.2112 0.144785 11.5983 10.2112 0.144785 -0.688142 0.625214 1.88703
230 1 12.1597 9.11139 16.332 12.1597 9.11139 -0.463969 -0.676601 1.31863 -1.11895
236 1 13.5638 9.15903 0.667982 13.5638 9.15903 0.667982 0.14478 -0.139285 1.19379
271 1 12.4427 10.431 1.3533 12.4427 10.431 1.3533 -1.06816 1.60771 -0.0865948
273 1 13.0402 10.0081 0.161807 13.0402 10.0081 0.161807 -3.44474 1.14865 0.064155
234 1 14.4332 9.12355 0.080276 14.4332 9.12355 0.080276 -0.724899 -0.996396 1.38951
240 1 15.4824 9.17479 0.423783 15.4824 9.17479 0.423783 -0.457927 1.99341 -0.170025
275 1 14.3172 10.1098 0.720626 14.3172 10.1098 0.720626 -1.20774 -0.19598 -0.57544
277 1 14.999 10.4749 16.739 14.999 10.4749 -0.0569327 0.0791219 0.897501 -0.358958
238 1 16.194 8.98462 16.5921 16.194 8.98462 -0.203907 0.801152 -1.78399 -1.36333
279 1 16.1657 10.0019 0.831235 16.1657 10.0019 0.831235 -1.85352 1.78013 0.771146
242 1 1.19983 11.1477 16.7424 1.19983 11.1477 -0.0535734 1.44695 1.21448 0.900741
244 1 16.6693 11.047 0.884842 -0.126651 11.047 0.884842 0.973501 -1.98668 0.0979459
281 1 0.238458 11.7869 -0.0207 0.238458 11.7869 -0.0207 0.754685 -0.836653 -0.0506206
283 1 0.86593 11.7752 1.12813 0.86593 11.7752 1.12813 -0.630822 0.0195405 -0.0342775
246 1 2.36451 10.8678 16.672 2.36451 10.8678 -0.123986 1.18147 -0.774271 -0.797763
248 1 1.11131 10.7892 0.918593 1.11131 10.7892 0.918593 -3.18355 -0.49404 0.73687
285 1 2.0186 12.0853 16.4255 2.0186 12.0853 -0.37043 2.55504 -0.518333 -0.0681069
287 1 2.22501 11.3827 0.736432 2.22501 11.3827 0.736432 -2.12314 0.54101 1.96444
250 1 4.25864 10.6387 -0.0305313 4.25864 10.6387 -0.0305313 -0.309504 0.109118 -1.22442
252 1 3.17381 10.9021 0.592612 3.17381 10.9021 0.592612 -0.101222 0.625915 -1.70874
289 1 3.32545 11.831 16.8006 3.32545 11.831 0.00467515 2.1337 1.20797 0.418196
291 1 4.26112 11.5758 0.816944 4.26112 11.5758 0.816944 -0.396267 0.68989 0.00396266
254 1 5.94559 11.3061 16.7868 5.94559 11.3061 -0.00916012 -1.47144 2.39919 0.337606
256 1 5.28523 10.7927 0.591675 5.28523 10.7927 0.591675 -0.0453118 2.19226 0.253139
293 1 4.64109 11.8975 16.703 4.64109 11.8975 -0.0929599 0.187604 0.95847 -0.603184
295 1 5.76063 11.6337 0.952698 5.76063 11.6337 0.952698 0.519655 -0.92458 1.32965
258 1 7.70601 11.1825 16.421 7.70601 11.1825 -0.374959 -0.382959 0.769224 -0.557526
260 1 6.54396 10.8957 0.780245 6.54396 10.8957 0.780245 0.991732 -1.27111 -1.18061
297 1 6.82748 11.7525 16.3084 6.82748 11.7525 -0.487559 -0.246859 1.03797 -0.977454
299 1 7.27381 11.4824 1.15198 7.27381 11.4824 1.15198 -0.490043 0.551924 -0.413922
264 1 7.92269 10.8208 0.630784 7.92269 10.8208 0.630784 -0.613997 -1.02315 -0.853581
301 1 8.25426 12.0084 0.062802 8.25426 12.0084 0.062802 0.338135 -0.607977 -0.115841
262 1 9.00173 10.6798 16.4411 9.00173 10.6798 -0.354897 -1.67843 1.59823 -1.96084
268 1 9.77922 10.9223 0.310901 9.77922 10.9223 0.310901 -1.55367 -0.0296646 -0.743076
303 1 8.83376 11.3665 0.82949 8.83376 11.3665 0.82949 -1.50495 0.955442 -0.466103
305 1 10.082 12.2242 0.556208 10.082 12.2242 0.556208 0.118696 0.515191 2.759
266 1 11.0181 11.2431 16.6584 11.0181 11.2431 -0.137533 -0.824687 -0.402181 0.199415
272 1 11.5764 10.8544 0.896685 11.5764 10.8544 0.896685 -2.21041 0.219986 -0.982492
307 1 10.9202 11.5927 0.78098 10.9202 11.5927 0.78098 0.0509925 0.226818 -1.36067
309 1 11.7987 11.6885 0.313045 11.7987 11.6885 0.313045 1.9043 -1.71754 2.4682
270 1 12.9446 11.3725 0.200148 12.9446 11.3725 0.200148 -0.786409 -0.145517 0.995127
276 1 13.4132 10.9512 1.20281 13.4132 10.9512 1.20281 -0.0256591 -0.227396 -1.44851
311 1 12.7317 11.7883 1.15759 12.7317 11.7883 1.15759 -0.955396 -2.19319 1.96453
313 1 13.7405 11.9365 16.6917 13.7405 11.9365 -0.104311 1.58534 1.15936 0.214408
274 1 13.9388 10.8388 16.7854 13.9388 10.8388 -0.0105214 1.18674 -1.86142 1.15929
280 1 15.5089 10.8946 0.971471 15.5089 10.8946 0.971471 1.82948 -1.98015 1.79522
315 1 14.2625 11.7309 0.73793 14.2625 11.7309 0.73793 0.422244 0.901685 2.14966
317 1 14.7671 11.9092 16.6925 14.7671 11.9092 -0.103472 0.250026 0.840683 -0.308288
278 1 15.9939 10.8525 0.0192396 15.9939 10.8525 0.0192396 -1.53692 -1.05047 0.861402
319 1 16.039 11.8832 0.931977 16.039 11.8832 0.931977 0.591493 1.36333 1.33305
282 1 1.08186 12.3407 0.121923 1.08186 12.3407 0.121923 3.32534 0.424785 1.21718
284 1 0.0652533 12.4463 0.793405 0.0652533 12.4463 0.793405 -0.594114 0.528225 0.875444
321 1 0.190299 13.6356 16.7203 0.190299 13.6356 -0.0756581 -1.42276 -0.127052 2.33967
323 1 1.01712 13.3652 0.375749 1.01712 13.3652 0.375749 -0.0954002 -0.292962 0.0132395
286 1 2.7111 12.7385 16.5107 2.7111 12.7385 -0.28526 1.83946 -0.200146 0.723136
288 1 1.92859 12.3856 0.671993 1.92859 12.3856 0.671993 0.192582 0.650994 -0.887976
325 1 1.8349 13.3527 16.4914 1.8349 13.3527 -0.304574 2.9733 -1.23044 -2.21717
327 1 2.27655 13.3565 0.62233 2.27655 13.3565 0.62233 -1.25461 0.236407 1.0523
290 1 4.12403 12.6889 16.5911 4.12403 12.6889 -0.204851 0.486582 1.76326 1.4889
292 1 3.39012 12.311 0.912266 3.39012 12.311 0.912266 -0.767263 0.585003 1.55731
329 1 3.37541 13.4988 0.395664 3.37541 13.4988 0.395664 -0.987426 -1.74874 2.60699
331 1 4.39475 13.1914 0.802109 4.39475 13.1914 0.802109 -1.81068 1.64454 -0.264263
294 1 5.78653 12.3965 -0.0359375 5.78653 12.3965 -0.0359375 1.69077 -0.459209 -1.84136
296 1 5.14573 12.5734 1.01839 5.14573 12.5734 1.01839 1.28128 -0.856187 -0.581715
333 1 5.10574 13.1553 16.7591 5.10574 13.1553 -0.0368629 2.19554 0.0145427 0.590313
335 1 5.81789 13.4834 0.865024 5.81789 13.4834 0.865024 -2.06318 -1.19448 1.30365
298 1 7.37883 12.6149 0.214077 7.37883 12.6149 0.214077 1.32989 -0.0186818 1.7952
300 1 6.81533 12.5255 1.07749 6.81533 12.5255 1.07749 0.0644537 -0.358957 1.49322
337 1 6.8245 13.3225 0.00545357 6.8245 13.3225 0.00545357 -0.531648 0.0541896 -2.78939
339 1 7.51721 13.3815 0.959551 7.51721 13.3815 0.959551 -0.868506 -0.566552 1.8029
304 1 8.17023 12.4284 0.956326 8.17023 12.4284 0.956326 0.515677 -1.46827 0.434999
341 1 8.49174 13.5428 0.14071 8.49174 13.5428 0.14071 1.05508 -0.460113 0.202834
302 1 9.05258 12.721 0.126862 9.05258 12.721 0.126862 0.563234 0.611106 0.681084
308 1 9.85311 12.8628 1.28288 9.85311 12.8628 1.28288 0.36659 1.39767 0.795585
343 1 8.83976 13.3035 1.07141 8.83976 13.3035 1.07141 -1.63818 0.316845 -0.300776
345 1 9.9235 13.2451 0.246397 9.9235 13.2451 0.246397 0.185547 -0.406272 -0.204521
306 1 11.1008 12.3462 16.4645 11.1008 12.3462 -0.331432 -0.221068 -1.53319 -0.440778
312 1 11.8396 12.6434 0.854439 11.8396 12.6434 0.854439 -0.871723 1.04465 0.531434
347 1 10.9189 13.3451 0.736605 10.9189 13.3451 0.736605 -0.0984774 -1.39941 -1.21774
349 1 11.5345 13.26 16.5746 11.5345 13.26 -0.221345 0.234288 0.420382 -0.779231
310 1 12.6695 12.2509 0.0373441 12.6695 12.2509 0.0373441 -0.617434 -0.00124094 -0.0346193
316 1 13.435 12.508 0.926447 13.435 12.508 0.926447 1.25106 -0.397777 -1.71129
351 1 12.5749 13.3548 0.936041 12.5749 13.3548 0.936041 1.90409 -0.475449 -0.0739162
353 1 13.2463 13.4262 0.056323 13.2463 13.4262 0.056323 0.154375 0.57123 -0.733377
314 1 14.1991 12.9303 16.7004 14.1991 12.9303 -0.0955764 -0.536629 0.755329 0.450092
320 1 15.2105 12.5799 0.770781 15.2105 12.5799 0.770781 -1.12674 0.522809 -0.473945
355 1 14.2731 13.2083 0.899938 14.2731 13.2083 0.899938 3.51211 1.08766 -1.44976
357 1 15.0619 13.5075 0.392808 15.0619 13.5075 0.392808 1.16101 2.18308 1.95784
318 1 16.0124 12.751 0.100642 16.0124 12.751 0.100642 1.0699 2.99514 2.21833
359 1 15.8618 13.4012 1.11811 15.8618 13.4012 1.11811 0.907792 -1.06568 0.911703
322 1 1.13043 14.3647 16.4228 1.13043 14.3647 -0.373203 1.32756 -1.56715 -0.218981
324 1 0.205637 14.4882 0.730914 0.205637 14.4882 0.730914 0.6837 0.868571 1.04558
361 1 0.152745 15.2231 -0.0391123 0.152745 15.2231 -0.0391123 -2.86777 1.65781 -2.49381
363 1 0.84342 15.2571 0.771939 0.84342 15.2571 0.771939 0.685439 -0.752702 -0.176731
326 1 2.649 13.9568 16.4937 2.649 13.9568 -0.30224 0.950738 0.366907 -0.129039
328 1 1.50155 14.3215 0.830819 1.50155 14.3215 0.830819 0.258872 0.0670858 -0.905674
365 1 1.53833 15.321 -0.0598469 1.53833 15.321 -0.0598469 1.02128 -0.0687877 -1.67499
367 1 2.69874 14.465 0.548677 2.69874 14.465 0.548677 1.97634 -2.04724 -0.895309
330 1 4.21772 14.1125 0.380602 4.21772 14.1125 0.380602 -0.857628 0.382485 -0.105145
332 1 3.55408 14.0774 1.27702 3.55408 14.0774 1.27702 -1.20348 -0.902485 1.60024
369 1 3.87912 14.7973 16.3158 3.87912 14.7973 -0.480204 2.43956 0.710611 -1.34377
371 1 3.96426 14.9639 1.06615 3.96426 14.9639 1.06615 0.553519 -0.798443 -0.584578
334 1 5.65577 13.9478 16.6604 5.65577 13.9478 -0.135516 -0.0656629 0.939364 1.50269
336 1 5.09059 14.3158 0.994 5.09059 14.3158 0.994 0.478389 -0.696841 0.697068
373 1 4.84861 15.0851 0.338413 4.84861 15.0851 0.338413 -2.35293 -0.87712 2.03303
375 1 5.77452 14.9788 0.760787 5.77452 14.9788 0.760787 -0.874722 -1.44304 1.31321
338 1 7.76622 14.3724 16.7224 7.76622 14.3724 -0.073534 1.90019 0.517491 1.0485
340 1 6.6175 14.3446 0.688643 6.6175 14.3446 0.688643 0.310828 0.502936 -2.0439