ITEM: TIMESTEP
100
ITEM: NUMBER OF ATOMS
4000
ITEM: BOX BOUNDS pp pp pp
0.0000000000000000e+00 1.6795961913825074e+01
0.0000000000000000e+00 1.6795961913825074e+01
0.0000000000000000e+00 1.6795961913825074e+01
ITEM: ATOMS id type x y z xu yu zu vx vy vz
1 1 16.5896 16.6894 16.7407 -0.20641 -0.10657 -0.0552919 -0.114003 0.468168 -0.950711
2 1 0.516565 0.742983 0.0320402 0.516565 0.742983 0.0320402 -0.513565 1.07564 -0.155998
3 1 1.10457 16.471 0.625884 1.10457 -0.325001 0.625884 1.42182 0.22398 2.52834
4 1 16.4103 0.721384 0.964303 -0.385634 0.721384 0.964303 -0.214229 0.715913 1.30849
5 1 1.57026 16.7591 16.5774 1.57026 -0.0368746 -0.218561 -2.24588 -0.811394 0.50692
6 1 2.39509 0.659704 16.7004 2.39509 0.659704 -0.0955649 0.279304 -2.18077 0.302253
7 1 2.7856 0.0361245 0.607636 2.7856 0.0361245 0.607636 1.85999 -0.342096 -1.2264
8 1 1.48236 0.890139 0.326831 1.48236 0.890139 0.326831 0.739328 -0.597384 0.159384
9 1 3.91654 16.4727 0.197335 3.91654 -0.323271 0.197335 1.37264 0.647357 1.59013
10 1 4.31211 1.27348 0.038817 4.31211 1.27348 0.038817 0.537088 2.55512 -2.31763
11 1 4.47673 0.356426 0.745997 4.47673 0.356426 0.745997 1.76778 0.242949 2.23841
12 1 3.66147 0.955964 0.865706 3.66147 0.955964 0.865706 0.118432 1.99985 1.2472
13 1 5.56792 16.5243 0.235375 5.56792 -0.271699 0.235375 2.44821 1.98919 0.920794
14 1 6.17545 1.06232 16.6853 6.17545 1.06232 -0.11067 2.28078 0.277983 1.32663
15 1 5.67964 0.637137 1.17167 5.67964 0.637137 1.17167 -1.36162 -2.13479 0.638573
16 1 5.28374 1.11632 0.371823 5.28374 1.11632 0.371823 1.33297 -0.0939613 -1.38327
17 1 6.60649 0.114132 0.639735 6.60649 0.114132 0.639735 -3.15821 0.574846 1.32972
18 1 7.65745 0.822127 0.299041 7.65745 0.822127 0.299041 1.08222 0.0954764 1.09198
19 1 7.96914 16.6595 1.03227 7.96914 -0.136463 1.03227 0.441904 -0.239273 -0.156744
20 1 6.95032 1.08795 1.05552 6.95032 1.08795 1.05552 -0.53075 0.72998 0.100949
21 1 8.75791 16.4816 0.0303054 8.75791 -0.314391 0.0303054 -1.26447 1.92123 -3.10844
24 1 8.34001 0.878215 1.04904 8.34001 0.878215 1.04904 -1.84705 1.28709 0.469984
22 1 8.90755 1.08224 0.230065 8.90755 1.08224 0.230065 0.286294 0.221382 0.364994
23 1 8.97976 16.7453 0.928282 8.97976 -0.0506572 0.928282 -0.136857 1.0727 -0.0781248
25 1 9.93757 0.294132 0.268801 9.93757 0.294132 0.268801 -1.35869 -0.476867 -0.288589
28 1 10.2552 0.770263 1.1361 10.2552 0.770263 1.1361 -1.56001 1.75125 -1.38886
26 1 11.0011 0.867899 16.7759 11.0011 0.867899 -0.0200362 -0.216156 1.05247 1.57185
27 1 11.1875 0.234257 0.868128 11.1875 0.234257 0.868128 -0.466776 -0.926109 -1.20399
29 1 11.7707 0.13433 0.00379132 11.7707 0.13433 0.00379132 -0.919058 -1.35651 2.35407
32 1 11.8617 0.948427 1.07246 11.8617 0.948427 1.07246 -0.0187135 0.584009 1.26528
30 1 13.0011 0.984868 16.6966 13.0011 0.984868 -0.099342 -1.67958 0.71122 -0.364008
31 1 12.6461 0.184 0.958094 12.6461 0.184 0.958094 1.49889 -0.548575 -1.09292
33 1 12.739 16.2892 0.246346 12.739 -0.506736 0.246346 0.637939 -1.76875 0.554261
36 1 13.7043 0.865284 1.33494 13.7043 0.865284 1.33494 1.08297 0.108589 -0.153478
34 1 14.4486 0.772212 16.611 14.4486 0.772212 -0.184975 0.23501 -1.76931 0.265672
35 1 13.5982 0.0340151 0.51722 13.5982 0.0340151 0.51722 0.604253 -1.2423 1.13876
37 1 14.9845 16.7884 16.7194 14.9845 -0.00756962 -0.076541 2.58888 0.588487 1.06511
40 1 14.9827 0.35517 1.04781 14.9827 0.35517 1.04781 -0.611654 2.37831 0.577306
38 1 15.9725 0.723957 0.043041 15.9725 0.723957 0.043041 0.501261 -1.32905 1.51659
39 1 15.808 16.7294 0.634537 15.808 -0.0665758 0.634537 0.861066 0.565679 -0.0731406
41 1 0.258858 1.94689 16.7265 0.258858 1.94689 -0.0694534 0.52132 0.892222 -1.42985
42 1 1.11155 2.34603 0.33849 1.11155 2.34603 0.33849 3.01757 1.37516 1.98652
43 1 0.823703 1.53932 0.855185 0.823703 1.53932 0.855185 1.04712 -0.175201 -0.928835
44 1 0.0999538 2.38536 0.866335 0.0999538 2.38536 0.866335 2.44206 -0.619815 -1.29842
45 1 1.98601 1.66856 16.7595 1.98601 1.66856 -0.0365047 1.93806 -2.16036 1.46341
46 1 2.91957 2.4038 16.4495 2.91957 2.4038 -0.346504 0.135603 -2.81822 -1.21753
47 1 2.42681 1.32641 0.819204 2.42681 1.32641 0.819204 -3.22699 -0.455744 0.0957204
48 1 1.595 2.25223 1.3284 1.595 2.25223 1.3284 -0.586245 -1.80713 -0.0583673
49 1 3.13893 1.31771 16.7364 3.13893 1.31771 -0.0595337 -0.232024 -0.0220739 0.932773
50 1 3.91362 2.27251 0.096318 3.91362 2.27251 0.096318 -0.679698 -1.77549 1.56014
51 1 4.72294 1.91639 0.851914 4.72294 1.91639 0.851914 -0.399072 2.03622 2.30916
52 1 3.0907 2.30223 0.944369 3.0907 2.30223 0.944369 -0.167432 -0.291169 1.18989
53 1 4.82697 2.09754 16.6577 4.82697 2.09754 -0.138228 1.26027 2.62239 -2.05541
54 1 5.94602 2.36914 0.133249 5.94602 2.36914 0.133249 0.473165 -1.45454 -0.949686
55 1 5.65142 1.59126 1.22818 5.65142 1.59126 1.22818 -2.0298 0.215442 1.95036
56 1 5.39521 2.95608 0.900195 5.39521 2.95608 0.900195 0.528086 0.133677 1.21366
57 1 6.90594 1.7066 16.4887 6.90594 1.7066 -0.307221 1.2615 -0.373651 0.582077
58 1 7.67361 2.43245 16.2886 7.67361 2.43245 -0.507346 -1.0304 -1.02923 -1.32234
59 1 7.56185 1.78113 1.37192 7.56185 1.78113 1.37192 0.327238 0.615913 0.769942
60 1 6.96777 2.37467 0.661777 6.96777 2.37467 0.661777 0.481552 -2.10089 -2.29205
61 1 8.05809 1.69543 0.546554 8.05809 1.69543 0.546554 0.0764416 -0.511687 0.0561177
64 1 8.21258 2.70539 1.02588 8.21258 2.70539 1.02588 -1.12096 0.126825 -2.04143
62 1 8.71982 2.10441 16.7453 8.71982 2.10441 -0.050657 -1.6628 -0.94585 -0.128117
63 1 9.40174 1.43963 1.16253 9.40174 1.43963 1.16253 0.54647 0.245263 -0.667403
65 1 9.65117 1.73061 16.5764 9.65117 1.73061 -0.219529 -0.0894483 1.2689 -1.15455
68 1 9.62481 2.26861 0.548377 9.62481 2.26861 0.548377 -0.797388 -1.20038 0.286035
66 1 10.7336 2.11376 0.257092 10.7336 2.11376 0.257092 -0.486219 0.400506 0.370482
67 1 11.0238 1.57912 1.03678 11.0238 1.57912 1.03678 1.80999 0.408405 0.0222414
69 1 11.8367 1.86933 0.0186594 11.8367 1.86933 0.0186594 0.464543 -0.629292 1.03934
72 1 11.8996 2.03125 0.969095 11.8996 2.03125 0.969095 -2.30523 0.259264 0.0670344
70 1 13.0414 2.31433 0.0778167 13.0414 2.31433 0.0778167 0.586365 0.261309 0.832343
71 1 12.8268 1.3409 0.859836 12.8268 1.3409 0.859836 1.03484 -0.636257 0.562047
73 1 13.8959 1.9533 0.159815 13.8959 1.9533 0.159815 1.22338 1.36721 -0.0366928
76 1 13.3097 2.4552 1.09212 13.3097 2.4552 1.09212 1.03032 -0.957928 0.932889
74 1 14.9104 2.16005 0.259297 14.9104 2.16005 0.259297 2.38878 0.67749 -0.713257
75 1 14.5937 1.23358 0.719785 14.5937 1.23358 0.719785 0.386349 0.0980917 0.81005
77 1 15.459 1.52652 16.5721 15.459 1.52652 -0.223821 0.931015 -2.39817 -1.36801
80 1 15.7946 2.54424 0.826848 15.7946 2.54424 0.826848 1.10405 1.0802 0.732151
78 1 16.2297 2.42376 16.6171 16.2297 2.42376 -0.178842 1.14075 0.624354 0.522
79 1 16.112 1.68067 0.480848 16.112 1.68067 0.480848 0.380435 1.82379 -1.26784
81 1 0.0900354 3.23025 16.3596 0.0900354 3.23025 -0.436391 -0.245532 -0.483321 0.602776
82 1 1.37784 4.45472 0.0940659 1.37784 4.45472 0.0940659 0.811508 1.83782 2.38877
83 1 0.606506 3.28783 0.667758 0.606506 3.28783 0.667758 0.454234 0.569898 1.20656
84 1 0.196786 4.33651 1.16269 0.196786 4.33651 1.16269 0.119333 0.729094 1.65726
85 1 1.53152 3.50931 16.7247 1.53152 3.50931 -0.0712274 -0.601696 1.40275 0.176808
86 1 2.7699 4.53718 16.5504 2.7699 4.53718 -0.245576 1.93697 0.257601 0.886443
87 1 2.49969 3.22447 0.345544 2.49969 3.22447 0.345544 -1.68214 -0.666817 -0.567913
88 1 2.04186 4.08529 0.856555 2.04186 4.08529 0.856555 -0.148677 -1.68786 -0.462088
89 1 3.43071 3.29252 16.6691 3.43071 3.29252 -0.126886 0.883273 -1.43009 -0.898663
90 1 4.33095 4.07126 0.0507163 4.33095 4.07126 0.0507163 1.13167 -0.222643 -0.431597
91 1 4.20515 3.03202 1.05007 4.20515 3.03202 1.05007 -0.0699125 -0.545665 -2.98253
92 1 3.27026 3.59819 0.910167 3.27026 3.59819 0.910167 0.101813 -0.537967 -2.11051
93 1 5.28554 3.09362 16.6106 5.28554 3.09362 -0.185373 1.07194 -2.17063 1.77986
94 1 5.49143 4.00067 16.0994 5.49143 4.00067 -0.696603 -0.848453 -0.772474 -0.922876
95 1 6.16324 3.40486 0.0742055 6.16324 3.40486 0.0742055 -1.37564 0.594706 0.827882
96 1 5.33431 3.94475 0.596261 5.33431 3.94475 0.596261 1.2798 -0.597409 -1.03439
97 1 7.11478 3.28548 16.6216 7.11478 3.28548 -0.174396 0.485458 0.228179 -2.16893
98 1 7.68556 4.17175 16.2461 7.68556 4.17175 -0.549872 -1.09336 0.441998 -1.02338
99 1 7.55964 3.39513 0.687455 7.55964 3.39513 0.687455 0.3607 1.62854 0.316049
100 1 6.98531 4.15478 0.388933 6.98531 4.15478 0.388933 0.985425 -0.381544 -0.156764
101 1 8.49152 3.28047 16.793 8.49152 3.28047 -0.00296956 1.64514 0.289935 0.821168
104 1 8.30489 4.17744 0.638233 8.30489 4.17744 0.638233 -0.849361 0.354772 -2.48451
102 1 9.86525 4.58697 16.6663 9.86525 4.58697 -0.129701 -1.44227 0.32149 -0.677324
103 1 9.15953 3.41443 0.673406 9.15953 3.41443 0.673406 1.80072 -0.190378 1.93806
105 1 10.0184 3.84661 0.477619 10.0184 3.84661 0.477619 0.667439 -1.36399 1.44181
108 1 9.24824 4.4271 1.05753 9.24824 4.4271 1.05753 0.405315 0.949517 0.422009
106 1 11.2498 3.91161 0.0255656 11.2498 3.91161 0.0255656 -0.592011 0.137583 2.9868
107 1 11.1257 2.97775 0.791869 11.1257 2.97775 0.791869 2.40779 -0.752419 0.342314
109 1 12.2722 2.80074 0.40019 12.2722 2.80074 0.40019 0.556612 -1.57237 2.77409
112 1 11.814 3.84598 0.967277 11.814 3.84598 0.967277 0.732831 -1.07555 0.446109
110 1 12.4203 4.14281 0.151895 12.4203 4.14281 0.151895 -2.36642 0.0479906 -0.016253
111 1 12.2723 2.95571 1.43059 12.2723 2.95571 1.43059 1.41368 0.391787 3.02821
113 1 13.209 3.72149 0.759863 13.209 3.72149 0.759863 -0.362005 0.940787 1.22556
116 1 13.1372 4.0461 1.72739 13.1372 4.0461 1.72739 1.76709 -0.25925 0.844778
114 1 14.296 4.05419 0.25687 14.296 4.05419 0.25687 0.276283 -0.861492 1.17773
115 1 14.7047 3.12416 0.733614 14.7047 3.12416 0.733614 0.692812 -1.13851 -0.933518
117 1 15.3363 3.03093 16.7574 15.3363 3.03093 -0.0385507 -0.892828 -1.24234 -1.28437
120 1 15.3815 3.92872 0.327071 15.3815 3.92872 0.327071 0.332623 0.047375 0.757544
118 1 16.0777 4.12623 16.4054 16.0777 4.12623 -0.390542 1.37653 -0.218813 -0.534107
119 1 16.3371 3.50824 0.471252 16.3371 3.50824 0.471252 -1.26735 -0.0607503 -1.17745
121 1 0.0991009 4.96606 0.187829 0.0991009 4.96606 0.187829 0.634102 -0.61463 1.84832
122 1 0.756084 5.83225 0.0689451 0.756084 5.83225 0.0689451 -0.502533 -0.583823 -0.30696
123 1 0.98014 5.0438 0.839567 0.98014 5.0438 0.839567 1.00933 0.565112 0.850233
124 1 16.4297 5.91255 1.17551 -0.366303 5.91255 1.17551 -2.64732 0.210815 0.889125
125 1 1.72884 5.34463 0.187838 1.72884 5.34463 0.187838 -0.386127 -1.32414 -0.143336
126 1 2.39801 5.80358 0.671386 2.39801 5.80358 0.671386 -1.34045 -0.306251 2.06267
127 1 2.71276 4.87367 0.826802 2.71276 4.87367 0.826802 -0.205398 -1.37137 0.809781
128 1 1.36217 6.12263 0.989749 1.36217 6.12263 0.989749 3.00189 0.761306 1.1352
129 1 3.46095 5.34954 0.0494877 3.46095 5.34954 0.0494877 0.439634 0.276062 -1.26125
130 1 3.99109 6.59437 0.0408983 3.99109 6.59437 0.0408983 -2.64976 -0.165761 1.67282
131 1 4.05234 4.57887 0.824627 4.05234 4.57887 0.824627 -0.327039 0.812248 1.71998
132 1 3.47082 5.91128 0.890231 3.47082 5.91128 0.890231 1.149 -1.2425 -0.563168
133 1 4.99479 4.95948 0.122196 4.99479 4.95948 0.122196 -0.503792 -1.84316 1.16843
134 1 4.98566 6.14516 0.378367 4.98566 6.14516 0.378367 -1.14385 0.20806 0.473748
135 1 5.62319 5.34957 1.01883 5.62319 5.34957 1.01883 -0.252296 0.158973 -1.27593
136 1 4.63895 5.97709 1.26927 4.63895 5.97709 1.26927 -1.48323 1.15833 1.22872
137 1 6.10946 4.87795 0.362494 6.10946 4.87795 0.362494 0.0279175 -0.676892 0.880744
138 1 7.59032 5.12812 0.475776 7.59032 5.12812 0.475776 -0.427029 1.47901 1.96011
139 1 8.05582 5.36291 1.44051 8.05582 5.36291 1.44051 0.293131 1.93993 -1.27289
140 1 6.72518 5.98982 0.640241 6.72518 5.98982 0.640241 0.789433 0.330497 -0.980754
141 1 8.55822 4.97092 0.0692289 8.55822 4.97092 0.0692289 0.689627 0.323255 -0.684739
144 1 8.18281 6.17446 0.676458 8.18281 6.17446 0.676458 -1.90853 -0.470806 -3.7344
142 1 9.77167 5.76541 16.6952 9.77167 5.76541 -0.100721 0.201269 0.602959 0.80871
143 1 9.04412 5.473 0.920191 9.04412 5.473 0.920191 2.06911 1.30704 -0.349977
145 1 10.5636 5.35248 15.9467 10.5636 5.35248 -0.849281 -1.58247 -1.47693 0.56303
148 1 10.0882 5.65608 0.890349 10.0882 5.65608 0.890349 -0.463965 -0.975295 -0.204748
146 1 11.3007 5.88908 0.399466 11.3007 5.88908 0.399466 -0.105917 -0.515412 1.08982
147 1 10.6519 4.77494 0.349484 10.6519 4.77494 0.349484 -0.705869 -0.207444 -0.000832157
149 1 11.7649 5.00206 0.132855 11.7649 5.00206 0.132855 -0.534944 -1.79352 1.01952
152 1 11.5529 6.47819 1.23508 11.5529 6.47819 1.23508 0.751315 1.29759 0.269724
150 1 12.2088 6.23775 0.176435 12.2088 6.23775 0.176435 0.101338 -1.60859 0.792749
151 1 12.5141 5.32932 0.623848 12.5141 5.32932 0.623848 -1.46633 0.574571 -2.81105
153 1 13.7113 4.83693 0.498056 13.7113 4.83693 0.498056 1.80255 -2.54804 -0.674042
156 1 13.3744 5.89043 0.859916 13.3744 5.89043 0.859916 1.09864 2.15149 0.834526
154 1 14.4668 5.64576 0.128437 14.4668 5.64576 0.128437 1.41659 -1.89821 0.950316
155 1 14.6192 5.02933 0.987629 14.6192 5.02933 0.987629 0.460128 -1.87896 0.715285
157 1 15.0905 4.70172 16.3219 15.0905 4.70172 -0.474029 -2.23737 -0.506243 1.10083
160 1 15.3396 5.76171 0.675461 15.3396 5.76171 0.675461 0.546356 1.31303 0.0350827
158 1 15.8532 5.92722 16.7416 15.8532 5.92722 -0.0543763 0.633184 1.44876 3.12463
159 1 15.8468 4.88036 0.140481 15.8468 4.88036 0.140481 -0.209743 -0.0368762 -2.48175
161 1 0.0611464 6.66297 0.587206 0.0611464 6.66297 0.587206 -0.546918 0.386194 -2.3792
162 1 0.983188 7.23883 0.291306 0.983188 7.23883 0.291306 0.74402 0.0772015 -1.1432
163 1 0.965905 6.91137 1.53751 0.965905 6.91137 1.53751 0.259736 1.68422 1.30065
164 1 0.130699 7.48498 1.18288 0.130699 7.48498 1.18288 -1.66595 0.731713 0.51243
165 1 2.01705 7.0218 0.499525 2.01705 7.0218 0.499525 0.934808 -1.40375 -0.922041
166 1 2.18111 7.7978 16.4215 2.18111 7.7978 -0.374428 -2.03811 -1.3378 -0.16722
167 1 2.14012 6.60008 1.52262 2.14012 6.60008 1.52262 1.87274 0.0140416 -0.685527
168 1 1.75675 8.04625 0.809538 1.75675 8.04625 0.809538 0.558438 1.56029 -0.756079
169 1 3.047 6.91334 0.964798 3.047 6.91334 0.964798 -2.33703 0.190155 2.99776
170 1 3.79723 7.64972 0.184548 3.79723 7.64972 0.184548 0.0146564 -0.342807 -1.2176
171 1 4.31449 6.99624 1.04327 4.31449 6.99624 1.04327 0.603259 -0.754888 0.404383
172 1 3.24337 7.91969 1.07211 3.24337 7.91969 1.07211 -2.95189 2.09635 1.94053
173 1 5.23989 6.88343 16.4989 5.23989 6.88343 -0.29708 0.00738452 0.0223927 2.23328
174 1 5.46099 7.8109 0.314874 5.46099 7.8109 0.314874 -1.7968 -0.166015 -0.838158
175 1 5.49917 6.95906 0.837947 5.49917 6.95906 0.837947 -1.01951 1.10132 -0.636724
176 1 4.55532 8.20864 0.643635 4.55532 8.20864 0.643635 -1.75082 1.05215 1.22976
177 1 6.23202 6.87174 0.106758 6.23202 6.87174 0.106758 -0.291335 0.244838 0.892413
178 1 7.9031 7.6939 16.7305 7.9031 7.6939 -0.0654414 -1.16844 0.185608 -0.204342
179 1 7.46738 6.9877 0.658854 7.46738 6.9877 0.658854 -4.29768 -0.421508 -0.149499
180 1 6.32857 7.54775 0.987869 6.32857 7.54775 0.987869 -0.0963053 1.18082 -1.4872
181 1 8.07722 6.65791 16.3092 8.07722 6.65791 -0.486772 -0.982131 -1.0313 0.0435513
184 1 8.76443 7.48018 0.611121 8.76443 7.48018 0.611121 3.32613 0.441663 0.695515
182 1 9.74192 7.68217 0.0402201 9.74192 7.68217 0.0402201 3.34711 -1.47427 1.49227
183 1 9.50467 6.70977 0.240803 9.50467 6.70977 0.240803 0.336082 0.393828 -1.72883
185 1 10.3939 6.82621 16.694 10.3939 6.82621 -0.10197 -1.54518 -1.23075 1.49423
188 1 10.2268 7.9188 1.06569 10.2268 7.9188 1.06569 -3.54968 0.0446161 0.57297
186 1 10.693 7.94179 0.105696 10.693 7.94179 0.105696 0.525001 0.341975 -1.56784
187 1 10.6324 6.91751 0.92633 10.6324 6.91751 0.92633 -1.15494 -0.274446 -1.64011
189 1 11.5546 7.06543 0.246492 11.5546 7.06543 0.246492 0.149532 1.47327 0.268565
192 1 11.8897 8.55134 0.804953 11.8897 8.55134 0.804953 0.783973 1.15184 -1.309
190 1 12.5184 7.12681 16.6009 12.5184 7.12681 -0.195099 0.677007 1.30185 -0.877119
191 1 12.7309 6.66032 0.890897 12.7309 6.66032 0.890897 -0.447378 -0.522444 1.67129
193 1 13.2431 6.44708 16.6946 13.2431 6.44708 -0.10135 1.36669 -0.665149 -0.409268
196 1 13.4491 7.3102 0.336319 13.4491 7.3102 0.336319 -1.59679 -1.18509 -4.58143
194 1 14.162 7.26077 16.4896 14.162 7.26077 -0.306389 -1.11755 -0.192977 -1.69584
195 1 14.3647 6.63867 0.566619 14.3647 6.63867 0.566619 1.18911 -2.56956 0.527862
197 1 15.0705 6.50084 16.5587 15.0705 6.50084 -0.237299 0.590408 -0.109851 0.598331
200 1 14.8238 7.52287 0.723423 14.8238 7.52287 0.723423 -1.27084 0.128968 -0.942933
198 1 15.8349 7.27034 16.6917 15.8349 7.27034 -0.104283 -2.47508 0.697318 -0.118407
199 1 15.7004 6.70022 0.68436 15.7004 6.70022 0.68436 2.0679 -0.6567 -0.1432
201 1 16.7653 7.91019 0.0982089 -0.0306393 7.91019 0.0982089 2.4816 0.755566 0.445271
203 1 0.730643 8.28976 0.693023 0.730643 8.28976 0.693023 0.172394 1.19712 0.726397
205 1 1.97637 8.81564 0.0766332 1.97637 8.81564 0.0766332 -0.617028 0.918906 -0.445701
207 1 2.59137 8.68342 1.00493 2.59137 8.68342 1.00493 -1.20584 -0.72585 -0.162034
209 1 3.15385 8.46093 0.115875 3.15385 8.46093 0.115875 1.35085 -3.01704 0.59547
211 1 3.89036 8.75094 1.22762 3.89036 8.75094 1.22762 -1.09446 0.210357 -0.611847
213 1 5.32038 8.77387 16.6447 5.32038 8.77387 -0.151248 1.88362 1.64789 -2.68288
215 1 5.73595 8.65931 0.841891 5.73595 8.65931 0.841891 -0.148199 -3.58225 -1.37519
217 1 6.83103 8.50819 0.0849484 6.83103 8.50819 0.0849484 1.73193 -0.389808 1.17756
219 1 7.79191 8.5482 0.591249 7.79191 8.5482 0.591249 2.49301 1.39047 -0.308814
221 1 8.97415 8.71136 0.04681 8.97415 8.71136 0.04681 0.223803 -0.0261864 -0.76637
223 1 9.57618 8.61012 0.930022 9.57618 8.61012 0.930022 1.02489 -1.4388 -0.99161
225 1 10.0495 8.88471 0.0852894 10.0495 8.88471 0.0852894 0.862695 3.09103 -1.54806
227 1 10.7436 8.79653 0.882467 10.7436 8.79653 0.882467 -0.435488 1.62822 -1.71074
229 1 11.6803 8.1293 16.708 11.6803 8.1293 -0.0879306 2.4088 -0.707608 1.23537
231 1 12.5355 9.322 0.739688 12.5355 9.322 0.739688 0.117871 4.19586 0.110788
233 1 13.1291 8.38283 16.7259 13.1291 8.38283 -0.0700687 -1.48782 -1.46399 -1.43058
235 1 14.067 8.2187 0.587738 14.067 8.2187 0.587738 1.12113 -0.335248 -0.863676
237 1 14.9847 7.99172 16.5956 14.9847 7.99172 -0.200322 -0.937904 0.710413 -0.480845
239 1 15.6863 8.21057 0.486627 15.6863 8.21057 0.486627 0.670735 -0.626704 -2.01486
202 1 1.06307 9.33538 0.269312 1.06307 9.33538 0.269312 0.421323 0.116074 1.56182
204 1 0.0107007 8.96619 0.437909 0.0107007 8.96619 0.437909 -0.960301 0.254619 -0.293554
241 1 16.6554 9.86262 16.6628 -0.140594 9.86262 -0.133141 -0.873992 -0.756622 0.0164425
243 1 0.618105 9.84597 0.929454 0.618105 9.84597 0.929454 1.13853 0.920511 1.73207
206 1 2.68087 9.55028 16.6308 2.68087 9.55028 -0.165146 1.79637 2.40149 -1.55474
208 1 1.95135 9.69601 0.868042 1.95135 9.69601 0.868042 -0.378625 1.72015 0.650593
245 1 1.67378 10.104 16.504 1.67378 10.104 -0.291953 -1.22433 0.346141 0.839013
247 1 2.89942 10.3863 0.760088 2.89942 10.3863 0.760088 -1.37074 2.58764 -0.147076
210 1 3.91077 9.07548 16.5102 3.91077 9.07548 -0.28581 1.57516 -1.78951 -0.807165
212 1 3.44704 9.35903 0.632649 3.44704 9.35903 0.632649 1.50455 0.737198 0.334642
249 1 3.75681 10.2142 0.289599 3.75681 10.2142 0.289599 -0.397457 -0.226352 -1.03785
251 1 4.52272 10.1364 0.924457 4.52272 10.1364 0.924457 2.38875 -0.934518 -0.989283
214 1 6.25202 9.71951 0.284697 6.25202 9.71951 0.284697 -0.188558 0.417542 2.11806
216 1 4.93531 9.29229 1.04847 4.93531 9.29229 1.04847 0.517387 0.428835 0.0710346
253 1 4.97823 9.81301 16.6243 4.97823 9.81301 -0.171656 0.0178372 1.23054 -0.195079
255 1 5.55533 10.2889 0.661229 5.55533 10.2889 0.661229 -2.35925 1.859 -1.22427
218 1 7.4381 9.39043 0.134906 7.4381 9.39043 0.134906 1.70321 -0.426441 0.351473
220 1 6.67909 9.14071 0.928187 6.67909 9.14071 0.928187 0.704595 -2.24649 2.1354
257 1 7.27932 10.3487 16.5484 7.27932 10.3487 -0.247543 1.54454 -1.0457 1.24084
259 1 7.4278 9.9734 1.0841 7.4278 9.9734 1.0841 -0.0291397 0.708283 1.78739
224 1 8.308 9.42816 0.83819 8.308 9.42816 0.83819 -0.0185867 0.749989 0.678444
261 1 8.53939 9.88782 16.728 8.53939 9.88782 -0.0679962 -0.214541 -0.193219 -0.153166
222 1 9.39691 9.48788 16.1838 9.39691 9.48788 -0.612154 0.868389 1.537 -1.50322
228 1 9.64489 9.80168 0.293497 9.64489 9.80168 0.293497 -0.16485 1.01467 0.426539
263 1 8.82474 10.4651 0.796366 8.82474 10.4651 0.796366 0.822302 -1.41234 0.3089
265 1 10.3789 10.164 16.4725 10.3789 10.164 -0.323498 -2.50553 0.713079 -1.99687
226 1 11.072 9.11639 16.7158 11.072 9.11639 -0.0801625 0.540298 1.1734 -0.683869
232 1 11.4445 9.4967 1.06137 11.4445 9.4967 1.06137 -0.584833 3.29713 -1.71444
267 1 10.7634 9.99397 0.615365 10.7634 9.99397 0.615365 -0.571053 -0.631381 -0.33669
269 1 11.3543 10.2867 16.7115 11.3543 10.2867 -0.0844974 -1.72382 -0.0773584 -0.296803
230 1 12.0756 9.08522 16.3414 12.0756 9.08522 -0.454576 -1.10199 -1.81866 1.91061
236 1 13.5898 9.02241 0.742801 13.5898 9.02241 0.742801 1.55388 0.691863 0.60238
271 1 12.466 10.6102 0.969075 12.466 10.6102 0.969075 1.994 1.36578 0.0608487
273 1 12.3092 10.0765 0.10843 12.3092 10.0765 0.10843 0.00682917 -2.48973 -1.49073
234 1 14.5013 9.3511 16.4897 14.5013 9.3511 -0.306236 0.000200037 -0.670372 0.307946
240 1 15.6042 9.53053 0.164682 15.6042 9.53053 0.164682 3.02093 -0.294882 -2.06797
275 1 14.1793 10.0968 0.777389 14.1793 10.0968 0.777389 -0.355748 0.64958 0.596847
277 1 14.842 10.3064 0.039173 14.842 10.3064 0.039173 -0.246541 0.671513 -1.05752
238 1 16.4102 8.85108 16.322 16.4102 8.85108 -0.47394 -2.44095 0.583974 -0.117278
279 1 16.4375 9.73742 1.03279 16.4375 9.73742 1.03279 -0.431681 -1.46394 1.52827
242 1 1.25531 11.2574 0.0580195 1.25531 11.2574 0.0580195 1.35141 -0.236483 -2.03128
244 1 16.5863 10.7718 0.858301 -0.20967 10.7718 0.858301 -0.599141 1.82664 0.44783
281 1 0.173695 11.4953 0.0778252 0.173695 11.4953 0.0778252 -1.36117 -0.528674 0.792477
283 1 0.895671 11.8968 0.89835 0.895671 11.8968 0.89835 0.332689 0.292431 -0.445581
246 1 2.77285 10.7792 16.6246 2.77285 10.7792 -0.171374 1.22767 -0.0955962 2.20204
248 1 0.822293 10.7743 0.957205 0.822293 10.7743 0.957205 0.273243 1.39828 -0.338107
285 1 2.0442 11.9886 16.7309 2.0442 11.9886 -0.0650519 -0.759178 -0.300851 -0.686007
287 1 2.11972 11.6166 1.02347 2.11972 11.6166 1.02347 0.786948 -0.401944 3.00823
250 1 4.50588 10.7096 16.6087 4.50588 10.7096 -0.187304 2.37708 0.309608 -1.23386
252 1 3.34369 11.2448 0.633379 3.34369 11.2448 0.633379 -0.631667 -1.82041 -0.330254
289 1 3.59289 12.1859 0.177187 3.59289 12.1859 0.177187 -1.88746 1.28426 -0.501601
291 1 4.20186 11.808 0.840668 4.20186 11.808 0.840668 -1.25977 2.8785 1.5588
254 1 6.19268 11.2986 0.0135145 6.19268 11.2986 0.0135145 3.27139 -1.82313 0.574941
256 1 5.03404 11.1476 0.536308 5.03404 11.1476 0.536308 1.46642 0.821438 -0.50501
293 1 4.64139 11.969 16.7718 4.64139 11.969 -0.0241898 0.730875 0.854729 -1.43512
295 1 6.06541 11.6132 1.04547 6.06541 11.6132 1.04547 0.438563 1.06337 1.4647
258 1 7.60436 11.2282 16.2271 7.60436 11.2282 -0.568884 0.146129 3.83872 -0.582901
260 1 6.69851 10.6293 0.946316 6.69851 10.6293 0.946316 0.283371 -2.55706 1.06627
297 1 6.96973 12.0625 16.1447 6.96973 12.0625 -0.651229 -0.058716 -0.562768 -1.7682
299 1 7.38698 11.5224 0.733274 7.38698 11.5224 0.733274 -1.68692 0.7154 -0.991379
264 1 8.03454 10.8798 0.417076 8.03454 10.8798 0.417076 -1.82564 -0.689743 0.162753
301 1 8.28552 12.0567 16.6621 8.28552 12.0567 -0.133878 -0.646835 -0.167278 -0.487868
262 1 8.70702 10.9949 16.4307 8.70702 10.9949 -0.365215 1.42758 3.17451 -0.71372
268 1 9.81819 11.2688 0.125298 9.81819 11.2688 0.125298 -0.290183 -1.34141 -0.162958
303 1 9.08074 11.5501 0.72761 9.08074 11.5501 0.72761 0.907763 -0.853065 -0.247434
305 1 9.80192 12.1713 0.76787 9.80192 12.1713 0.76787 -0.458897 1.73812 1.26514
266 1 10.7567 11.0905 16.5996 10.7567 11.0905 -0.196337 -1.2412 0.179001 -0.706989
272 1 11.4427 10.6749 1.07212 11.4427 10.6749 1.07212 0.903055 -0.428935 -0.18677
307 1 10.6264 11.5355 0.788678 10.6264 11.5355 0.788678 0.140472 -2.30908 -0.275271
309 1 12.0617 11.5487 0.497992 12.0617 11.5487 0.497992 -0.649337 0.350168 0.911774
270 1 13.0457 11.0441 0.150979 13.0457 11.0441 0.150979 -1.06304 -0.296074 0.38952
276 1 13.4992 10.7847 1.03319 13.4992 10.7847 1.03319 -0.651743 1.53494 1.62624
311 1 12.761 11.5643 1.51803 12.761 11.5643 1.51803 -0.670077 0.410627 -0.399242
313 1 13.6561 11.8329 16.6661 13.6561 11.8329 -0.12991 -0.887482 -0.120393 -0.291374
274 1 14.1449 10.9796 0.156563 14.1449 10.9796 0.156563 3.10877 1.82972 1.45434
280 1 15.2416 11.2557 0.901462 15.2416 11.2557 0.901462 -2.47374 1.22232 -1.48694
315 1 14.3152 11.8645 0.926807 14.3152 11.8645 0.926807 -1.11935 0.0322864 -0.111184
317 1 14.8388 11.7118 0.0522023 14.8388 11.7118 0.0522023 0.980045 -1.80022 -1.77528
278 1 15.7757 10.5864 0.15204 15.7757 10.5864 0.15204 -1.89206 0.273902 -0.45595
319 1 15.9052 12.0307 0.948709 15.9052 12.0307 0.948709 -0.426429 0.721586 0.45141
282 1 0.883701 12.4962 16.7766 0.883701 12.4962 -0.0193403 -2.00103 1.56161 -0.788922
284 1 0.375717 12.7523 0.961089 0.375717 12.7523 0.961089 0.484131 -2.67778 -1.30128
321 1 0.298672 13.4742 0.30351 0.298672 13.4742 0.30351 2.04027 0.701973 -1.70866
323 1 1.25584 13.276 0.779908 1.25584 13.276 0.779908 2.78838 0.169968 2.05301
286 1 3.0591 12.9818 16.568 3.0591 12.9818 -0.228004 -1.41436 2.5375 0.473995
288 1 2.3799 12.4888 0.633603 2.3799 12.4888 0.633603 0.271958 -0.128908 -2.65763
325 1 1.91636 12.991 16.4782 1.91636 12.991 -0.317774 -0.40105 -1.33085 1.08314
327 1 2.26044 13.7476 0.345757 2.26044 13.7476 0.345757 1.05874 0.303765 0.216596
290 1 4.25352 12.9868 0.145542 4.25352 12.9868 0.145542 0.847429 1.70952 0.868262
292 1 3.23695 12.1416 1.14585 3.23695 12.1416 1.14585 0.020439 0.411727 0.957772
329 1 3.10636 13.312 1.00058 3.10636 13.312 1.00058 0.618506 1.59787 1.34426
331 1 4.36221 13.1745 1.20022 4.36221 13.1745 1.20022 0.50447 -0.30105 2.57907
294 1 6.05941 12.5402 0.0439131 6.05941 12.5402 0.0439131 -1.08298 -1.21427 2.19862
296 1 5.09716 12.4866 1.08355 5.09716 12.4866 1.08355 3.8209 0.458336 0.0189534
333 1 5.18075 13.2063 16.7746 5.18075 13.2063 -0.021333 1.84644 -0.349217 -1.38211
335 1 5.95025 13.1355 0.962659 5.95025 13.1355 0.962659 1.65961 -0.2239 -1.05639
298 1 7.52943 12.6164 0.310895 7.52943 12.6164 0.310895 0.221551 1.60882 1.83945
300 1 7.02131 12.6161 1.1787 7.02131 12.6161 1.1787 0.584592 0.511062 -0.716905
337 1 6.68513 13.5768 16.5498 6.68513 13.5768 -0.246203 1.61525 1.04935 1.75389
339 1 7.67804 13.5808 0.740883 7.67804 13.5808 0.740883 -1.82998 1.64828 -1.0278
304 1 8.22187 12.1141 0.956282 8.22187 12.1141 0.956282 -0.332835 0.016295 -2.15134
341 1 8.17962 13.3598 16.6977 8.17962 13.3598 -0.0982265 -0.604425 -1.02631 -0.431144
302 1 8.89084 12.6789 0.399508 8.89084 12.6789 0.399508 -1.70288 -0.203401 -1.11779
308 1 9.74184 13.3487 1.28882 9.74184 13.3487 1.28882 1.55931 1.65669 0.275793
343 1 8.56746 13.3268 1.07428 8.56746 13.3268 1.07428 -0.643673 0.764255 0.847689
345 1 10.07 13.2284 0.117756 10.07 13.2284 0.117756 -0.770228 0.63313 0.345012
306 1 11.1719 12.1511 16.6013 11.1719 12.1511 -0.194687 -2.23469 0.959757 3.53218
312 1 11.961 12.7524 0.859428 11.961 12.7524 0.859428 -0.533885 -0.819465 0.644269
347 1 10.9647 12.8786 0.683565 10.9647 12.8786 0.683565 0.059908 -3.51203 0.0381999
349 1 11.5227 13.4346 16.6629 11.5227 13.4346 -0.133077 0.675844 1.09053 -2.32515
310 1 12.7716 12.4777 0.32248 12.7716 12.4777 0.32248 0.402329 -1.20526 0.152912
316 1 13.6554 12.7365 0.967751 13.6554 12.7365 0.967751 1.30085 0.455182 -0.413353
351 1 12.7541 13.4241 1.03703 12.7541 13.4241 1.03703 0.763204 1.58702 1.06612
353 1 13.1917 13.2891 16.7871 13.1917 13.2891 -0.00881345 0.540095 -0.81998 0.0849675
314 1 14.2134 12.8117 16.6583 14.2134 12.8117 -0.137686 2.15134 -2.08323 -0.307389
320 1 15.0665 12.7421 0.888695 15.0665 12.7421 0.888695 0.426907 1.25077 0.710297
355 1 14.3418 13.45 0.816895 14.3418 13.45 0.816895 1.17781 1.68212 -1.33516
357 1 15.2755 13.6555 0.447588 15.2755 13.6555 0.447588 1.5127 -0.252666 1.19821
318 1 16.1519 12.9168 0.271113 16.1519 12.9168 0.271113 0.385099 1.72246 0.105191
359 1 16.1689 13.7658 1.32551 16.1689 13.7658 1.32551 3.55574 1.51453 0.17702
322 1 1.18887 14.0281 16.6749 1.18887 14.0281 -0.121019 0.104476 0.296519 0.834286
324 1 0.171795 14.3563 0.838993 0.171795 14.3563 0.838993 0.257346 0.137689 -1.24251
361 1 16.7553 15.1264 16.3033 -0.0406539 15.1264 -0.492666 1.06652 2.1846 -0.807445
363 1 1.13205 15.412 0.473354 1.13205 15.412 0.473354 1.12804 1.44015 -2.42468
326 1 2.44327 13.9855 16.2533 2.44327 13.9855 -0.542642 -2.53907 0.0937852 -0.885835
328 1 1.56245 14.4654 0.77867 1.56245 14.4654 0.77867 -0.206102 -0.724632 -0.335912
365 1 1.91915 15.2254 16.5476 1.91915 15.2254 -0.248402 -0.305401 -0.659294 -0.546608
367 1 3.09048 14.3604 0.64806 3.09048 14.3604 0.64806 -0.390266 -0.846158 0.434502
330 1 4.03416 14.2865 0.441124 4.03416 14.2865 0.441124 2.62315 -2.75789 1.23479
332 1 3.58208 13.9481 1.56511 3.58208 13.9481 1.56511 -0.939553 1.43904 2.28367
369 1 3.89951 14.9359 16.5672 3.89951 14.9359 -0.228742 2.1675 0.0768807 1.3127
371 1 4.0007 14.9101 1.18698 4.0007 14.9101 1.18698 2.44794 0.678344 1.12976
334 1 5.78415 14.4987 0.0747345 5.78415 14.4987 0.0747345 0.485135 1.29984 -0.720763
336 1 5.02471 13.9345 0.657476 5.02471 13.9345 0.657476 0.00236525 0.0023194 -1.99962
373 1 4.9267 14.985 0.290092 4.9267 14.985 0.290092 -1.26546 -1.26488 0.855304
375 1 5.99181 14.9654 1.03098 5.99181 14.9654 1.03098 1.39811 0.569651 0.974095
338 1 7.86615 14.5026 16.7703 7.86615 14.5026 -0.0256793 1.9135 -1.67191 -1.50965
340 1 6.94467 14.4026 0.229986 6.94467 14.4026 0.229986 0.427957 0.221488 0.0646272
377 1 7.2936 15.3774 0.0285783 7.2936 15.3774 0.0285783 -0.556499 0.783377 0.0943215
379 1 7.67135 15.1065 1.05983 7.67135 15.1065 1.05983 -0.161476 0.590586 0.598782
344 1 8.40593 14.3963 0.820222 8.40593 14.3963 0.820222 1.2713 -1.66318 -0.646299