ITEM: TIMESTEP
150
ITEM: NUMBER OF ATOMS
4000
ITEM: BOX BOUNDS pp pp pp
0.0000000000000000e+00 1.6795961913825074e+01
0.0000000000000000e+00 1.6795961913825074e+01
0.0000000000000000e+00 1.6795961913825074e+01
ITEM: ATOMS id type x y z xu yu zu vx vy vz
1 1 16.6777 16.6833 16.4836 -0.118275 -0.112633 -0.312325 -0.491468 -1.54015 -0.718477
2 1 0.396687 0.853705 0.228065 0.396687 0.853705 0.228065 2.40685 -0.661888 2.16558
3 1 1.24156 16.4458 0.727306 1.24156 -0.350123 0.727306 -0.0658882 -1.45512 -0.729446
4 1 16.3069 0.623393 1.07511 -0.489098 0.623393 1.07511 -0.227195 -0.0948493 -0.392227
5 1 1.43217 16.741 16.2965 1.43217 -0.0549378 -0.499479 -0.289274 -1.03124 -0.316266
6 1 2.45854 0.449493 16.4927 2.45854 0.449493 -0.303232 -0.708162 0.36685 0.819791
7 1 3.11907 0.101629 0.442897 3.11907 0.101629 0.442897 -0.415029 -1.36123 0.984705
8 1 1.57463 0.746343 0.310209 1.57463 0.746343 0.310209 0.251651 -0.573471 -2.39081
9 1 4.03255 16.5359 0.276936 4.03255 -0.260033 0.276936 -0.448603 1.40219 -1.46237
10 1 4.10844 1.2523 16.6691 4.10844 1.2523 -0.126903 -1.17579 -1.68311 1.52805
11 1 4.64972 0.505273 0.43221 4.64972 0.505273 0.43221 -1.3081 2.35647 -0.812882
12 1 3.81714 1.31984 1.08773 3.81714 1.31984 1.08773 0.232803 0.0701304 1.71088
13 1 5.54905 0.0281421 0.0801849 5.54905 0.0281421 0.0801849 -0.220699 -2.34423 1.13085
14 1 6.28388 0.999965 0.276104 6.28388 0.999965 0.276104 -1.26023 -0.914009 1.00995
15 1 5.37268 0.0863489 1.20923 5.37268 0.0863489 1.20923 -1.11858 -0.0147517 -2.96482
16 1 5.35217 1.33032 0.258909 5.35217 1.33032 0.258909 -0.346206 0.493447 -0.412951
17 1 6.3862 0.187424 0.846262 6.3862 0.187424 0.846262 -0.788852 -1.60688 -0.106478
18 1 7.27572 0.745833 0.49867 7.27572 0.745833 0.49867 -0.0472374 -1.95001 2.98814
19 1 8.09705 0.280302 1.03219 8.09705 0.280302 1.03219 0.484169 1.9525 0.160302
20 1 6.91234 1.41878 1.14514 6.91234 1.41878 1.14514 1.6839 0.659895 0.625524
21 1 8.56371 16.3599 0.0920153 8.56371 -0.436093 0.0920153 1.30346 1.2432 0.915158
24 1 8.11218 1.03603 1.73721 8.11218 1.03603 1.73721 -1.07935 0.160723 2.51168
22 1 8.60966 1.03728 0.330989 8.60966 1.03728 0.330989 -1.85338 -1.00036 0.852279
23 1 9.11987 0.474244 1.09596 9.11987 0.474244 1.09596 0.931761 1.6433 0.0635583
25 1 9.72668 0.185729 0.263693 9.72668 0.185729 0.263693 -0.923148 -0.548957 0.0573509
28 1 10.0949 1.10129 0.78816 10.0949 1.10129 0.78816 -0.0261556 2.38727 -0.100658
26 1 11.0001 1.08277 0.0990963 11.0001 1.08277 0.0990963 -0.622788 -1.23642 -0.404529
27 1 10.8285 0.287578 0.712854 10.8285 0.287578 0.712854 -1.28662 0.282916 -1.08019
29 1 11.853 0.106986 0.0463685 11.853 0.106986 0.0463685 -0.773968 1.42284 0.273137
32 1 11.9487 0.900723 0.970559 11.9487 0.900723 0.970559 0.597845 -0.405351 -1.25104
30 1 12.7524 1.11581 0.0586976 12.7524 1.11581 0.0586976 -1.14439 2.09427 -0.695064
31 1 12.8523 0.326113 0.766851 12.8523 0.326113 0.766851 -0.446596 -0.068541 -0.294004
33 1 12.8002 16.0559 0.0813415 12.8002 -0.740027 0.0813415 2.59221 -1.05089 0.250584
36 1 13.8601 0.982331 1.17404 13.8601 0.982331 1.17404 0.552293 1.20972 -0.905084
34 1 14.3781 0.491051 16.7185 14.3781 0.491051 -0.0774628 2.13776 -0.3018 -0.338187
35 1 13.8458 0.0613646 0.739923 13.8458 0.0613646 0.739923 0.876485 -0.936346 0.975552
37 1 15.3338 0.16183 16.5827 15.3338 0.16183 -0.213293 -1.12777 -0.420228 -2.08337
40 1 15.4157 0.189163 0.853789 15.4157 0.189163 0.853789 3.38109 0.385951 -1.38268
38 1 16.1307 0.707922 0.0207175 16.1307 0.707922 0.0207175 -0.975872 -0.165869 -0.497444
39 1 16.1536 16.3591 0.962842 16.1536 -0.436865 0.962842 1.47779 0.605488 -2.71353
41 1 0.222595 1.76588 16.58 0.222595 1.76588 -0.215935 0.986948 -1.57535 -1.30491
42 1 1.47058 2.55176 0.55362 1.47058 2.55176 0.55362 0.813081 -1.95332 0.551076
43 1 0.997998 1.6095 0.741513 0.997998 1.6095 0.741513 1.91432 1.88624 0.0766809
44 1 0.394488 2.61095 0.530946 0.394488 2.61095 0.530946 -0.293514 2.07401 -1.13178
45 1 2.00542 1.65009 0.22927 2.00542 1.65009 0.22927 -1.1542 0.38817 1.22767
46 1 2.99546 2.13398 16.5273 2.99546 2.13398 -0.268701 -1.73236 -0.666712 1.62736
47 1 2.32525 1.16579 1.03409 2.32525 1.16579 1.03409 2.29888 -2.09384 0.863625
48 1 1.64782 1.89792 1.55556 1.64782 1.89792 1.55556 0.392177 -1.31258 1.83481
49 1 3.11665 1.05104 0.111179 3.11665 1.05104 0.111179 0.208706 1.12553 0.172388
50 1 3.65752 2.15873 0.471536 3.65752 2.15873 0.471536 -0.574469 0.984251 0.297461
51 1 4.8863 1.98019 0.706769 4.8863 1.98019 0.706769 2.34713 0.362579 -1.23136
52 1 2.64573 1.98496 0.886385 2.64573 1.98496 0.886385 -2.00487 -0.892661 -0.526702
53 1 4.93709 1.97212 16.3025 4.93709 1.97212 -0.493508 -2.21768 0.527945 1.41225
54 1 6.14537 1.97395 0.309394 6.14537 1.97395 0.309394 0.912281 1.10839 1.56969
55 1 5.54818 1.87751 1.60161 5.54818 1.87751 1.60161 1.73232 0.932586 0.469347
56 1 5.66597 2.60177 1.00595 5.66597 2.60177 1.00595 1.70289 0.541773 -0.636044
57 1 7.12299 1.36197 16.398 7.12299 1.36197 -0.397912 -0.00613372 -0.216211 -0.138744
58 1 7.85513 2.55295 16.7087 7.85513 2.55295 -0.0872136 1.71132 0.271276 3.34106
59 1 7.66224 2.03199 1.58382 7.66224 2.03199 1.58382 -0.974335 -1.63107 0.231903
60 1 7.08552 2.40922 0.730076 7.08552 2.40922 0.730076 0.0876422 1.6785 1.30377
61 1 7.77325 1.63905 0.334594 7.77325 1.63905 0.334594 -0.814989 0.221899 0.260748
64 1 8.26942 2.56997 0.888797 8.26942 2.56997 0.888797 1.16883 0.209996 -0.487892
62 1 9.00086 2.1994 16.5256 9.00086 2.1994 -0.270318 1.15429 -1.35386 -0.257814
63 1 8.91756 1.78316 1.0962 8.91756 1.78316 1.0962 -2.391 1.2616 -1.50908
65 1 9.9469 1.92872 16.472 9.9469 1.92872 -0.323962 -0.229669 0.374597 -0.167828
68 1 9.46088 2.68108 0.579405 9.46088 2.68108 0.579405 -1.11676 2.2238 -0.20771
66 1 10.4787 2.32406 0.478596 10.4787 2.32406 0.478596 -0.931514 0.356009 -0.255442
67 1 11.1417 1.41316 1.1804 11.1417 1.41316 1.1804 0.655516 1.69416 -1.84924
69 1 11.8758 1.72997 0.303327 11.8758 1.72997 0.303327 0.562001 -0.100458 0.628967
72 1 12.3496 1.98021 1.13523 12.3496 1.98021 1.13523 2.55846 0.795095 -1.41514
70 1 12.932 2.34047 0.030455 12.932 2.34047 0.030455 -0.65313 -0.655167 -0.259648
71 1 13.0563 1.4781 0.999774 13.0563 1.4781 0.999774 0.962254 0.576847 0.606909
73 1 13.7669 1.68236 0.406604 13.7669 1.68236 0.406604 -0.85827 -0.770033 0.324261
76 1 13.6662 2.82469 0.885495 13.6662 2.82469 0.885495 0.682853 1.29564 0.910526
74 1 15.2859 2.08749 0.487102 15.2859 2.08749 0.487102 1.67564 0.626746 -2.35705
75 1 14.7843 1.04132 0.726296 14.7843 1.04132 0.726296 0.53059 -1.73408 2.40669
77 1 15.2873 1.19577 16.6399 15.2873 1.19577 -0.156104 0.096799 0.671059 0.652561
80 1 15.813 2.81013 1.10675 15.813 2.81013 1.10675 -0.00778439 0.550345 0.841883
78 1 16.2928 2.48042 16.5106 16.2928 2.48042 -0.285347 -0.586491 0.4308 0.297736
79 1 16.2624 1.65747 0.502027 16.2624 1.65747 0.502027 -1.4795 -0.0915816 3.34011
81 1 0.383919 3.31927 16.5422 0.383919 3.31927 -0.253805 -1.5211 -1.17026 -0.5591
82 1 1.05309 4.44845 0.309089 1.05309 4.44845 0.309089 -0.234776 -0.0636081 -0.101905
83 1 0.412245 3.65845 0.661496 0.412245 3.65845 0.661496 -1.59693 3.01151 0.555516
84 1 0.374876 4.43458 1.33742 0.374876 4.43458 1.33742 1.62748 1.17205 0.749092
85 1 1.3291 3.48905 0.104917 1.3291 3.48905 0.104917 2.50651 0.672486 1.64981
86 1 2.92088 4.3387 16.725 2.92088 4.3387 -0.0709645 -0.367913 -1.00046 -0.726887
87 1 2.44634 2.86641 0.49811 2.44634 2.86641 0.49811 -0.373514 -1.15732 -2.17164
88 1 1.99698 4.10791 0.57248 1.99698 4.10791 0.57248 -0.675792 0.520282 -3.42115
89 1 3.72724 2.91476 16.4987 3.72724 2.91476 -0.29727 1.37514 -0.0750009 -0.68676
90 1 4.48264 4.04082 0.00823817 4.48264 4.04082 0.00823817 -0.497564 2.78618 -0.457302
91 1 4.30803 3.1307 0.567905 4.30803 3.1307 0.567905 1.11484 -1.73641 0.684044
92 1 3.34305 3.75834 0.581584 3.34305 3.75834 0.581584 0.386619 0.703881 -0.118351
93 1 5.32119 3.22886 0.0261799 5.32119 3.22886 0.0261799 0.814378 -0.239951 0.349731
94 1 5.09094 4.24453 16.0583 5.09094 4.24453 -0.737627 -1.5564 1.59798 -0.642134
95 1 6.30787 3.68038 0.166957 6.30787 3.68038 0.166957 -0.964177 0.363206 0.876057
96 1 5.35366 4.07068 0.763892 5.35366 4.07068 0.763892 -1.2976 1.57812 -0.595503
97 1 7.27905 3.36002 16.508 7.27905 3.36002 -0.287954 -1.0977 0.568198 0.176037
98 1 7.75764 4.25404 16.09 7.75764 4.25404 -0.706012 0.927567 0.798346 -1.43946
99 1 7.4339 3.37684 0.706083 7.4339 3.37684 0.706083 -0.27801 -0.98931 2.82888
100 1 7.11669 4.30256 0.255377 7.11669 4.30256 0.255377 -0.683482 -2.05823 -0.869589
101 1 8.4449 3.40701 0.101477 8.4449 3.40701 0.101477 -0.191645 1.12525 -0.93046
104 1 8.21006 4.35959 0.239453 8.21006 4.35959 0.239453 -0.241363 1.37952 -0.0409312
102 1 9.47904 4.3785 16.5919 9.47904 4.3785 -0.20404 -0.535999 -2.21371 -1.45866
103 1 8.92158 3.55268 0.97274 8.92158 3.55268 0.97274 -3.17432 0.368856 -1.66226
105 1 10.2501 3.59716 0.274904 10.2501 3.59716 0.274904 0.275466 2.39343 -0.151105
108 1 9.34468 4.55839 0.819385 9.34468 4.55839 0.819385 -1.86911 -0.544144 -0.802153
106 1 11.2544 3.75645 0.784957 11.2544 3.75645 0.784957 1.14353 -0.585317 3.18506
107 1 11.4367 2.62253 0.674348 11.4367 2.62253 0.674348 1.95659 -1.2978 -2.63993
109 1 12.593 2.97946 0.778938 12.593 2.97946 0.778938 1.01659 -2.62434 0.0797762
112 1 12.0852 3.74321 1.49003 12.0852 3.74321 1.49003 0.838456 1.6677 1.34925
110 1 12.2597 3.83376 0.251017 12.2597 3.83376 0.251017 1.45484 -0.136755 2.81811
111 1 12.6015 2.90847 1.6963 12.6015 2.90847 1.6963 1.94111 -0.510501 -0.979383
113 1 13.2443 3.80025 0.859434 13.2443 3.80025 0.859434 1.394 0.989448 1.9128
116 1 13.1056 3.87005 1.88845 13.1056 3.87005 1.88845 1.00336 -2.41121 1.63381
114 1 14.194 3.79033 0.308057 14.194 3.79033 0.308057 -0.574722 0.134413 -0.437278
115 1 14.711 2.9852 0.794783 14.711 2.9852 0.794783 -0.91227 0.876048 0.0866512
117 1 15.1506 2.961 16.606 15.1506 2.961 -0.190007 -1.40036 -0.506247 1.75403
120 1 15.3864 3.92356 0.269527 15.3864 3.92356 0.269527 0.458924 -1.0902 -0.911282
118 1 16.3624 4.14567 16.3258 16.3624 4.14567 -0.470119 0.506041 0.523006 0.833879
119 1 16.3036 3.43377 0.404372 16.3036 3.43377 0.404372 0.447167 -0.165995 -0.460519
121 1 0.146656 4.80049 0.375573 0.146656 4.80049 0.375573 0.382677 0.374586 -2.29786
122 1 0.675932 5.88232 0.173967 0.675932 5.88232 0.173967 0.60127 0.540788 -0.997285
123 1 0.875809 5.24892 1.16786 0.875809 5.24892 1.16786 -1.34293 1.3806 1.42469
124 1 16.254 5.74118 1.34326 -0.541936 5.74118 1.34326 0.55808 -2.04446 0.521637
125 1 1.78614 5.55583 0.0703855 1.78614 5.55583 0.0703855 3.38116 -0.712345 -0.567657
126 1 2.60442 5.92245 0.548417 2.60442 5.92245 0.548417 -1.57675 0.037645 -1.0757
127 1 2.85152 4.82983 0.904609 2.85152 4.82983 0.904609 1.20744 1.82616 -0.910181
128 1 1.35654 6.16591 0.830056 1.35654 6.16591 0.830056 1.24276 2.65807 3.02858
129 1 3.31838 5.52319 16.7418 3.31838 5.52319 -0.0541743 -1.90228 -1.83749 -0.190878
130 1 3.89145 6.23598 0.275683 3.89145 6.23598 0.275683 0.122544 -0.16424 0.317042
131 1 4.04151 4.93953 0.771963 4.04151 4.93953 0.771963 0.645043 -0.231027 -1.13677
132 1 3.36116 5.84457 1.2044 3.36116 5.84457 1.2044 0.389389 1.23647 2.06368
133 1 4.93554 4.99724 0.333323 4.93554 4.99724 0.333323 -0.116214 0.244287 0.211027
134 1 4.89367 5.99974 0.278816 4.89367 5.99974 0.278816 0.609295 0.760955 -3.0458
135 1 5.47765 5.55635 1.08619 5.47765 5.55635 1.08619 1.3145 1.05877 -0.895307
136 1 4.56956 5.97647 1.30382 4.56956 5.97647 1.30382 0.305298 0.114201 -1.32923
137 1 6.09014 4.60744 0.358139 6.09014 4.60744 0.358139 0.667667 -0.20998 0.858595
138 1 7.59103 5.23845 0.614688 7.59103 5.23845 0.614688 -0.292863 1.07474 -2.08007
139 1 8.27138 5.63441 1.24693 8.27138 5.63441 1.24693 2.11545 1.34924 -0.0375043
140 1 6.44884 6.13066 0.257564 6.44884 6.13066 0.257564 -1.86704 1.37289 -2.33503
141 1 8.74062 5.23946 16.8103 8.74062 5.23946 0.014289 -0.263425 2.29032 0.52626
144 1 7.90741 5.97529 -0.0586714 7.90741 5.97529 -0.0586714 0.087057 0.413424 -2.95899
142 1 9.57979 5.8064 16.6306 9.57979 5.8064 -0.165326 -0.94638 0.158697 -0.161129
143 1 9.17738 5.83733 0.730499 9.17738 5.83733 0.730499 -1.01514 1.37787 -0.486211
145 1 10.2261 5.17384 16.0437 10.2261 5.17384 -0.75228 -1.88383 0.980527 1.69298
148 1 10.1174 5.99612 0.897746 10.1174 5.99612 0.897746 -0.540514 -0.490153 0.718366
146 1 11.3684 5.66007 0.490388 11.3684 5.66007 0.490388 1.14211 -0.0260925 1.08509
147 1 10.153 4.89223 0.442924 10.153 4.89223 0.442924 -1.68646 1.28808 -0.519482
149 1 11.6883 4.77279 0.2047 11.6883 4.77279 0.2047 -0.328725 -1.09831 0.862579
152 1 11.7358 6.52772 1.04429 11.7358 6.52772 1.04429 2.37309 -0.0909493 -0.484458
150 1 12.1151 6.47448 0.0321143 12.1151 6.47448 0.0321143 -0.00433587 1.33501 1.26487
151 1 12.8421 5.05622 0.474148 12.8421 5.05622 0.474148 0.706762 -0.959529 -0.275598
153 1 13.6944 4.59682 0.459914 13.6944 4.59682 0.459914 0.456051 0.360892 -0.332142
156 1 13.5271 5.7722 1.03049 13.5271 5.7722 1.03049 -1.15006 -2.70725 0.104166
154 1 14.0887 5.42367 0.0100083 14.0887 5.42367 0.0100083 -3.21373 0.711361 -0.787043
155 1 14.9084 4.73606 0.865927 14.9084 4.73606 0.865927 1.62776 -0.809817 -1.41378
157 1 14.8422 4.6652 16.5408 14.8422 4.6652 -0.255194 -2.85301 -0.323453 0.633423
160 1 15.3581 5.78388 0.682902 15.3581 5.78388 0.682902 1.32294 -1.01418 2.92346
158 1 16.4682 5.65584 0.129586 16.4682 5.65584 0.129586 -1.59169 -0.554138 -1.2239
159 1 15.7655 5.00389 0.12621 15.7655 5.00389 0.12621 -1.28555 -0.672618 -0.0255601
161 1 0.0816725 6.79362 0.406932 0.0816725 6.79362 0.406932 0.545796 -1.12714 0.0378919
162 1 0.918997 7.28986 0.725712 0.918997 7.28986 0.725712 -0.300279 1.3226 0.285404
163 1 0.898377 6.78839 1.64303 0.898377 6.78839 1.64303 -1.09036 0.458641 0.547808
164 1 16.5917 7.59296 1.12893 -0.204294 7.59296 1.12893 -1.30467 0.386357 0.535803
165 1 1.93293 6.99893 0.584142 1.93293 6.99893 0.584142 -0.96362 -0.783749 -1.55789
166 1 2.08307 7.67435 16.4642 2.08307 7.67435 -0.331793 0.126029 -0.491735 -0.357968
167 1 2.30107 6.56832 1.4089 2.30107 6.56832 1.4089 0.213451 -3.99714 -0.996683
168 1 1.69775 7.989 0.643263 1.69775 7.989 0.643263 -0.444515 1.93454 0.398301
169 1 3.38139 6.83303 0.894911 3.38139 6.83303 0.894911 0.00304661 -2.1273 -0.505887
170 1 3.88883 7.3235 0.203497 3.88883 7.3235 0.203497 0.180171 0.77633 0.187272
171 1 4.25858 7.11195 1.14655 4.25858 7.11195 1.14655 -0.163316 -0.474353 0.598538
172 1 2.89564 8.07758 1.20583 2.89564 8.07758 1.20583 0.769286 -0.885172 -0.480403
173 1 4.95828 6.94906 16.7052 4.95828 6.94906 -0.090739 -3.89957 0.584384 0.968072
174 1 5.47472 7.7516 0.118173 5.47472 7.7516 0.118173 -0.858319 0.937312 0.730973
175 1 5.36949 7.05083 0.871703 5.36949 7.05083 0.871703 -0.258488 0.788134 -0.51324
176 1 4.47833 8.10854 0.454912 4.47833 8.10854 0.454912 1.36837 -2.35348 -1.36289
177 1 6.09407 7.01897 0.0350447 6.09407 7.01897 0.0350447 0.879079 -0.99679 0.723559
178 1 7.57677 7.36012 0.102716 7.57677 7.36012 0.102716 -0.80977 -2.49001 0.76049
179 1 7.22672 6.86767 0.836471 7.22672 6.86767 0.836471 1.48794 -0.824698 0.897929
180 1 6.42069 7.71223 0.817022 6.42069 7.71223 0.817022 0.495702 -0.959147 1.14745
181 1 8.08647 6.8773 16.1145 8.08647 6.8773 -0.681457 -1.43295 -0.616436 -2.9062
184 1 9.03746 7.67867 0.653907 9.03746 7.67867 0.653907 0.341985 0.820369 -0.0129614
182 1 10.2251 7.46963 0.0408997 10.2251 7.46963 0.0408997 2.46844 -0.440238 -0.98873
183 1 8.86022 6.55503 16.7731 8.86022 6.55503 -0.0228677 -0.999901 0.565322 2.3312
185 1 10.6823 6.12656 16.2443 10.6823 6.12656 -0.551679 0.568163 -4.31341 -1.95939
188 1 10.3652 7.82974 1.32134 10.3652 7.82974 1.32134 1.57987 1.37672 0.649607
186 1 11.0449 8.43554 0.118054 11.0449 8.43554 0.118054 0.56404 1.21098 0.279408
187 1 10.678 6.76779 0.646796 10.678 6.76779 0.646796 0.519665 0.38274 -1.41463
189 1 11.3262 7.11621 16.6585 11.3262 7.11621 -0.137448 0.0833418 0.962329 -2.3049
192 1 12.0456 8.74922 0.930511 12.0456 8.74922 0.930511 0.483796 -0.069281 1.11472
190 1 12.3233 7.07118 16.1061 12.3233 7.07118 -0.689835 0.0978558 0.2102 0.311971
191 1 12.707 6.8649 1.09018 12.707 6.8649 1.09018 -1.04572 -0.390575 -0.581882
193 1 13.1714 6.17422 0.122919 13.1714 6.17422 0.122919 -0.51072 -0.179705 1.07434
196 1 13.2015 7.12929 0.282525 13.2015 7.12929 0.282525 -1.44186 0.136372 -1.07908
194 1 13.9891 7.53954 16.2828 13.9891 7.53954 -0.513165 -1.28497 -0.0914398 -0.744353
195 1 14.2484 6.42651 0.331489 14.2484 6.42651 0.331489 -2.41569 -0.528319 -0.165725
197 1 15.1415 6.24017 16.6718 15.1415 6.24017 -0.124175 -0.230216 0.556023 1.04696
200 1 14.8703 7.14928 0.649417 14.8703 7.14928 0.649417 0.015885 -0.68725 0.777854
198 1 15.5977 7.24843 16.6878 15.5977 7.24843 -0.108113 1.71741 -1.00416 -0.403582
199 1 15.8747 6.7645 0.792955 15.8747 6.7645 0.792955 0.0231549 -1.2375 -0.216419
201 1 0.0540604 7.70188 16.5978 0.0540604 7.70188 -0.198148 0.71214 0.0569779 -3.48762
203 1 0.650677 8.25848 1.01007 0.650677 8.25848 1.01007 1.1021 -2.0773 -1.4956
205 1 1.96075 8.71616 16.8031 1.96075 8.71616 0.00718665 0.155925 -1.09199 0.371406
207 1 2.64316 9.03675 0.761496 2.64316 9.03675 0.761496 -1.42754 2.24102 -1.15643
209 1 3.12861 8.19636 0.133661 3.12861 8.19636 0.133661 0.098505 -0.97723 -0.722077
211 1 3.86323 8.57675 1.21944 3.86323 8.57675 1.21944 -0.908928 -1.63942 0.179634
213 1 5.5065 8.82622 16.7918 5.5065 8.82622 -0.00414419 1.18449 0.00813561 1.94854
215 1 5.70213 8.43269 0.908249 5.70213 8.43269 0.908249 -0.769705 0.279429 2.36527
217 1 7.23088 8.35537 0.360307 7.23088 8.35537 0.360307 0.759425 -1.34281 1.28087
219 1 8.1931 8.22292 0.403223 8.1931 8.22292 0.403223 0.743487 -2.95546 -0.159656
221 1 8.92384 8.7261 16.6404 8.92384 8.7261 -0.155573 1.45436 -0.674106 0.0932369
223 1 9.43338 8.74092 0.746276 9.43338 8.74092 0.746276 0.868192 -2.06456 -2.09573
225 1 10.06 9.23619 16.6599 10.06 9.23619 -0.136064 0.63502 -0.363081 -0.0738727
227 1 10.6162 9.04 0.8321 10.6162 9.04 0.8321 0.605052 -1.06207 -0.87577
229 1 11.9744 7.96832 -0.00979714 11.9744 7.96832 -0.00979714 0.31301 -1.44169 -1.98276
231 1 12.7039 9.59136 1.02519 12.7039 9.59136 1.02519 -0.703009 -0.0458624 -1.47893
233 1 13.0189 8.30952 16.7184 13.0189 8.30952 -0.0775384 0.692129 -0.138277 -0.178278
235 1 13.9675 8.26701 0.295061 13.9675 8.26701 0.295061 -1.19982 -0.221181 0.194121
237 1 14.9975 8.00209 16.6456 14.9975 8.00209 -0.150355 -0.670844 -2.19038 2.41017
239 1 16.0011 8.25326 0.00556073 16.0011 8.25326 0.00556073 0.159033 -0.556244 -2.30345
202 1 0.730566 9.61047 0.200371 0.730566 9.61047 0.200371 -2.59599 1.97697 -0.065245
204 1 16.7474 8.92142 0.486659 -0.0485127 8.92142 0.486659 0.0539975 -0.387189 0.172514
241 1 16.2253 9.92938 16.5524 -0.570687 9.92938 -0.24359 -1.52853 -1.02517 -1.01546
243 1 0.0443036 10.0145 0.966908 0.0443036 10.0145 0.966908 -2.2243 -0.0204121 0.0706095
206 1 2.81594 9.71427 16.583 2.81594 9.71427 -0.212963 -1.29625 -1.05843 -1.32367
208 1 1.84102 9.7762 0.528703 1.84102 9.7762 0.528703 -2.09774 -0.60216 -0.0104187
245 1 1.6315 10.1345 16.3351 1.6315 10.1345 -0.460823 0.11899 0.774731 -3.17623
247 1 2.69439 10.4188 0.784471 2.69439 10.4188 0.784471 -0.360158 1.25139 -0.361892
210 1 4.02893 9.20632 16.7121 4.02893 9.20632 -0.0838783 0.0621329 2.00078 -0.66822
212 1 3.61269 9.43388 0.770528 3.61269 9.43388 0.770528 1.63184 2.13677 0.321603
249 1 3.60978 10.5783 16.6462 3.60978 10.5783 -0.149799 -0.0149274 0.603293 -1.24449
251 1 4.52587 10.1226 0.397423 4.52587 10.1226 0.397423 -0.454179 -1.24343 -0.36073
214 1 6.29148 9.87177 0.473503 6.29148 9.87177 0.473503 -1.25924 1.74828 -0.446803
216 1 4.75988 8.96692 1.09351 4.75988 8.96692 1.09351 -2.61488 0.968372 0.659913
253 1 5.35803 9.85818 16.5517 5.35803 9.85818 -0.244295 2.06442 1.26384 -1.60255
255 1 5.71548 10.779 0.493213 5.71548 10.779 0.493213 0.0991037 1.36733 1.09901
218 1 7.64124 9.2925 0.183581 7.64124 9.2925 0.183581 0.714154 -0.642593 -0.678341
220 1 6.64706 8.88637 1.00036 6.64706 8.88637 1.00036 0.463308 0.439072 1.50516
257 1 7.19396 10.2116 16.7919 7.19396 10.2116 -0.00405943 0.517118 -0.0669141 0.757107
259 1 7.19052 9.85269 0.990793 7.19052 9.85269 0.990793 -0.0758317 -1.56496 -0.0881736
224 1 8.49821 9.27841 0.694552 8.49821 9.27841 0.694552 -2.11959 -1.08074 -0.138192
261 1 8.48138 10.1066 16.7108 8.48138 10.1066 -0.0851958 -0.271496 1.07927 2.60815
222 1 9.25356 9.56039 16.0998 9.25356 9.56039 -0.696177 1.11224 1.31351 -1.47515
228 1 9.39938 9.7447 0.309235 9.39938 9.7447 0.309235 0.504776 1.00151 0.867895
263 1 8.84297 10.4504 0.79625 8.84297 10.4504 0.79625 1.25348 -0.35278 0.752896
265 1 10.1561 10.1893 16.2114 10.1561 10.1893 -0.584522 2.01016 -1.24984 0.26171
226 1 11.227 9.37615 16.5635 11.227 9.37615 -0.232447 0.384916 3.01863 1.20422
232 1 11.7136 9.75911 0.645692 11.7136 9.75911 0.645692 -0.156435 0.331501 -1.42628
267 1 10.4397 10.0442 0.364695 10.4397 10.0442 0.364695 0.0644683 0.821994 -1.13376
269 1 11.3792 10.5815 0.0481915 11.3792 10.5815 0.0481915 1.45691 3.04333 0.483847
230 1 12.3207 8.9907 16.5949 12.3207 8.9907 -0.201053 1.72514 1.67964 -1.2085
236 1 13.719 9.21069 0.973057 13.719 9.21069 0.973057 -1.67276 -0.804698 1.00928
271 1 12.5554 10.6865 0.931181 12.5554 10.6865 0.931181 0.207788 0.376257 -0.189311
273 1 12.4588 10.0177 16.83 12.4588 10.0177 0.0340249 1.98213 1.44901 2.14641
234 1 14.3632 9.1683 0.0711129 14.3632 9.1683 0.0711129 -0.511924 0.741628 0.789181
240 1 15.5281 9.23076 0.322982 15.5281 9.23076 0.322982 0.470327 -0.629085 -1.93283
275 1 14.1507 10.1777 1.03152 14.1507 10.1777 1.03152 -0.56157 -0.693514 1.92595
277 1 14.9778 10.1269 0.341942 14.9778 10.1269 0.341942 2.02519 0.00332229 1.19145
238 1 16.4095 8.91188 16.2532 16.4095 8.91188 -0.542805 0.397869 0.814682 0.922876
279 1 16.1963 9.3963 1.44347 16.1963 9.3963 1.44347 -0.951277 0.12628 2.28814
242 1 1.8668 11.0132 0.357453 1.8668 11.0132 0.357453 2.92468 1.17598 2.81638
244 1 16.3164 10.8988 1.11422 -0.47957 10.8988 1.11422 -1.38112 -1.23782 -0.203741
281 1 0.140999 11.7795 0.390165 0.140999 11.7795 0.390165 1.4332 1.73012 -0.689904
283 1 1.32081 12.2864 0.456212 1.32081 12.2864 0.456212 0.438307 0.664508 -2.05817
246 1 2.60341 10.9083 16.6424 2.60341 10.9083 -0.153582 0.507848 0.812399 -1.0143
248 1 0.746266 10.9314 0.868976 0.746266 10.9314 0.868976 -2.35009 0.176091 -0.591694
285 1 2.14889 11.9663 16.6886 2.14889 11.9663 -0.107407 0.647315 0.584383 1.8259
287 1 2.18001 11.9631 1.03579 2.18001 11.9631 1.03579 0.491072 0.54216 0.567757
250 1 4.84349 10.8072 16.4375 4.84349 10.8072 -0.358481 2.4464 0.880848 -1.35051
252 1 3.33499 11.3325 0.483999 3.33499 11.3325 0.483999 -1.1528 1.88352 0.830646
289 1 3.30298 12.5374 16.6557 3.30298 12.5374 -0.14025 0.837166 -0.408159 -0.0449362
291 1 4.20239 12.0418 0.612289 4.20239 12.0418 0.612289 -0.741279 0.895976 0.626198
254 1 6.66253 11.2165 16.5545 6.66253 11.2165 -0.241446 -0.72009 0.530168 2.10511
256 1 5.28416 11.7538 0.547999 5.28416 11.7538 0.547999 0.934304 0.191673 -0.802045
293 1 5.04763 12.3381 16.4508 5.04763 12.3381 -0.345205 3.10008 0.894597 -1.47349
295 1 6.1126 11.5126 1.26157 6.1126 11.5126 1.26157 -1.11239 1.95011 -0.258812
258 1 7.68528 11.3292 16.4111 7.68528 11.3292 -0.384882 2.53444 1.7158 0.495375
260 1 6.63954 10.7539 0.987316 6.63954 10.7539 0.987316 0.869598 -1.76886 -0.862792
297 1 7.16172 12.1997 16.3854 7.16172 12.1997 -0.410538 0.0373444 -0.149985 -1.31651
299 1 6.93979 11.9463 0.673461 6.93979 11.9463 0.673461 0.328513 0.980746 1.42979
264 1 7.67439 11.0131 0.593842 7.67439 11.0131 0.593842 -3.25647 -0.373064 0.221758
301 1 8.17699 12.4047 16.562 8.17699 12.4047 -0.233919 -0.116017 2.32633 0.022292
262 1 8.76678 11.2453 16.4121 8.76678 11.2453 -0.383899 -0.774846 -0.784127 -0.126586
268 1 9.72608 10.8032 0.136092 9.72608 10.8032 0.136092 -0.90948 -1.30022 1.43332
303 1 9.13039 11.5544 0.644577 9.13039 11.5544 0.644577 2.74674 0.269958 -0.607216
305 1 9.67586 12.6915 0.958924 9.67586 12.6915 0.958924 -0.441645 2.01963 1.40617
266 1 10.7544 11.1145 16.297 10.7544 11.1145 -0.498965 0.200129 -1.37445 -0.483316
272 1 11.5203 10.7292 1.11231 11.5203 10.7292 1.11231 0.242705 -1.45256 1.3143
307 1 10.6511 11.2121 0.537037 10.6511 11.2121 0.537037 -0.332925 -0.0210508 -1.70093
309 1 11.9635 11.3554 0.455824 11.9635 11.3554 0.455824 0.639207 -1.81022 1.43634
270 1 13.0788 11.0532 0.150788 13.0788 11.0532 0.150788 0.850188 0.173786 -0.913909
276 1 13.4235 11.3434 1.15806 13.4235 11.3434 1.15806 -1.38748 2.57688 -2.60214
311 1 12.4676 11.6158 1.50128 12.4676 11.6158 1.50128 0.30672 -0.618986 1.59476
313 1 13.5699 11.9424 16.6776 13.5699 11.9424 -0.118394 0.0579398 0.750432 0.683855
274 1 14.1215 11.091 0.411585 14.1215 11.091 0.411585 -0.39405 0.39014 -1.15511
280 1 15.2283 11.1623 0.85704 15.2283 11.1623 0.85704 0.253945 -1.26639 1.29048
315 1 14.286 11.851 1.09694 14.286 11.851 1.09694 1.29694 -1.87752 1.49859
317 1 14.9753 11.7397 16.7801 14.9753 11.7397 -0.0158365 0.476916 -1.04281 1.75962
278 1 15.989 10.8482 0.127893 15.989 10.8482 0.127893 0.000674008 -0.452187 1.32281
319 1 15.9494 12.0427 0.765156 15.9494 12.0427 0.765156 0.0823191 -1.33205 -0.5986
282 1 0.750908 12.5663 16.415 0.750908 12.5663 -0.380991 1.90739 0.53142 0.156037
284 1 0.512182 12.8649 0.949895 0.512182 12.8649 0.949895 2.01316 0.316703 1.53712
321 1 0.555326 13.5739 16.7052 0.555326 13.5739 -0.0907433 0.934805 -0.629252 -0.776981
323 1 1.56806 13.3978 0.944862 1.56806 13.3978 0.944862 1.68355 -0.615427 -1.1125
286 1 3.1142 13.4731 16.4598 3.1142 13.4731 -0.33612 2.61833 1.14519 -0.874402
288 1 2.62521 12.7383 0.571139 2.62521 12.7383 0.571139 1.05991 0.224404 -0.603721
325 1 1.7078 12.9853 16.8146 1.7078 12.9853 0.0186643 -1.1131 2.60387 -0.294592
327 1 2.50686 13.8016 0.593424 2.50686 13.8016 0.593424 0.116892 -0.206036 -1.45265
290 1 4.28473 12.8978 0.128478 4.28473 12.8978 0.128478 -0.676293 0.209628 -0.496822
292 1 3.2971 12.1911 1.19694 3.2971 12.1911 1.19694 0.894961 -1.57747 1.20008
329 1 3.38838 13.2724 0.939677 3.38838 13.2724 0.939677 0.394713 0.361912 -0.955067
331 1 4.1959 13.1491 1.64027 4.1959 13.1491 1.64027 1.37646 0.347945 0.792172
294 1 6.1802 12.0216 0.0118931 6.1802 12.0216 0.0118931 0.0905683 -0.297029 0.76234
296 1 5.51616 12.7206 0.833261 5.51616 12.7206 0.833261 0.944822 2.42549 -1.99996
333 1 5.85125 13.1094 16.5402 5.85125 13.1094 -0.255712 1.23754 -0.276059 1.08486
335 1 6.49753 13.4597 0.929304 6.49753 13.4597 0.929304 -0.324794 0.899653 2.40455
298 1 7.45667 12.8556 0.603692 7.45667 12.8556 0.603692 0.822266 1.3227 3.78761
300 1 6.87775 12.77 1.48869 6.87775 12.77 1.48869 0.804614 0.254634 2.51617
337 1 6.74609 13.4666 16.6658 6.74609 13.4666 -0.130157 -0.528833 1.17552 -2.16671
339 1 7.3776 13.777 0.810616 7.3776 13.777 0.810616 0.66122 -1.17874 -0.58898
304 1 8.0275 11.8885 0.684008 8.0275 11.8885 0.684008 -0.917865 0.764541 -1.27763
341 1 8.14502 13.5197 0.070055 8.14502 13.5197 0.070055 -0.0182933 0.48906 0.80401
302 1 9.19706 12.8271 0.0635382 9.19706 12.8271 0.0635382 0.0893755 1.71529 -0.629113
308 1 9.61127 13.8758 1.3074 9.61127 13.8758 1.3074 0.0287385 0.69032 -0.0259062
343 1 8.61944 13.2616 0.986122 8.61944 13.2616 0.986122 -0.310676 -1.16439 0.988292
345 1 10.2309 13.042 0.0806081 10.2309 13.042 0.0806081 0.745385 -1.40083 0.709275
306 1 11.2455 12.0294 16.6285 11.2455 12.0294 -0.167506 -0.304037 1.40908 -1.73458
312 1 12.0485 12.5464 1.00832 12.0485 12.5464 1.00832 -0.125774 2.13901 -1.22257
347 1 10.7888 12.5027 1.14927 10.7888 12.5027 1.14927 -0.306356 -2.60749 0.204289
349 1 11.7937 13.2303 16.7217 11.7937 13.2303 -0.0742788 0.210893 -0.353373 0.0011532
310 1 12.7527 12.0671 0.47834 12.7527 12.0671 0.47834 1.35562 -1.16246 0.0436625
316 1 13.5916 12.6643 0.961416 13.5916 12.6643 0.961416 -0.360504 -2.44419 2.93837
351 1 12.8478 13.3471 0.88015 12.8478 13.3471 0.88015 -2.42917 1.51572 -0.70141
353 1 13.23 13.1891 16.6488 13.23 13.1891 -0.147167 -1.34849 -1.25187 -0.955326
314 1 14.1717 12.7302 0.049092 14.1717 12.7302 0.049092 -1.49507 -0.37489 -1.40537
320 1 14.8551 12.678 0.770932 14.8551 12.678 0.770932 0.798928 0.243188 -0.127594
355 1 14.3245 13.634 0.492961 14.3245 13.634 0.492961 1.50501 -0.678267 -0.579256
357 1 15.479 13.552 0.612244 15.479 13.552 0.612244 -1.09165 -0.855074 -2.03506
318 1 16.2781 12.9744 0.530797 16.2781 12.9744 0.530797 0.71537 0.070977 0.617585
359 1 16.3155 13.9486 1.08611 16.3155 13.9486 1.08611 1.45349 0.719475 -1.26364
322 1 1.20983 14.3379 16.4686 1.20983 14.3379 -0.32737 -1.70496 2.31441 0.621954
324 1 0.530851 14.9382 0.401198 0.530851 14.9382 0.401198 2.43442 2.5835 -0.236332
361 1 -0.0367861 14.7931 16.2951 -0.0367861 14.7931 -0.500895 -0.610671 -0.631691 -1.40788
363 1 1.34669 15.5362 0.48793 1.34669 15.5362 0.48793 -0.13221 -0.797522 0.271403
326 1 2.30438 14.1535 16.2896 2.30438 14.1535 -0.506408 0.711142 -0.00408135 -0.464883
328 1 1.62762 14.5793 0.575027 1.62762 14.5793 0.575027 0.269317 -0.116299 -0.910909
365 1 2.20185 15.1125 16.5419 2.20185 15.1125 -0.254045 -1.27334 1.47983 0.315023
367 1 3.30717 14.4112 0.83535 3.30717 14.4112 0.83535 1.76617 0.125369 2.11796
330 1 4.2798 14.0327 1.01688 4.2798 14.0327 1.01688 1.98914 0.767083 1.95128
332 1 3.38468 14.2178 1.80365 3.38468 14.2178 1.80365 -0.639288 0.331561 -0.565318
369 1 4.18691 14.9779 16.6138 4.18691 14.9779 -0.18212 1.88635 -1.4749 0.0578331
371 1 4.06706 14.9841 1.37574 4.06706 14.9841 1.37574 -0.605872 -0.319764 1.06905
334 1 5.92341 14.7808 16.5762 5.92341 14.7808 -0.21972 0.484225 1.25899 0.0588589
336 1 5.55391 13.8199 0.517823 5.55391 13.8199 0.517823 -0.543294 0.152862 -2.66252
373 1 4.89913 14.7725 0.4969 4.89913 14.7725 0.4969 0.642873 -1.19415 -1.11312
375 1 5.8061 15.2551 0.7665 5.8061 15.2551 0.7665 -3.86755 0.967062 -1.53096
338 1 8.04266 14.6361 16.5079 8.04266 14.6361 -0.288031 -2.01554 2.30787 -1.51598
340 1 6.74245 14.6903 0.489802 6.74245 14.6903 0.489802 -1.06713 -1.06846 -1.5232
377 1 7.47901 15.4338 0.157108 7.47901 15.4338 0.157108 0.664674 0.863869 1.19691
379 1 7.57816 14.7238 1.06082 7.57816 14.7238 1.06082 1.49795 0.355176 0.882598
344 1 8.59709 14.3241 0.854397 8.59709 14.3241 0.854397 -0.281524 -2.27003 1.01766