ITEM: TIMESTEP
400
ITEM: NUMBER OF ATOMS
4000
ITEM: BOX BOUNDS pp pp pp
0.0000000000000000e+00 1.6795961913825074e+01
0.0000000000000000e+00 1.6795961913825074e+01
0.0000000000000000e+00 1.6795961913825074e+01
ITEM: ATOMS id type x y z xu yu zu vx vy vz
1 1 16.2816 16.3117 16.129 -0.514334 -0.484296 -0.666928 -0.2971 -0.700028 -1.47459
2 1 16.6391 0.484704 0.204407 -0.156824 0.484704 0.204407 -0.0665279 -2.47766 -0.142518
3 1 1.15169 16.7711 0.0211692 1.15169 -0.0248213 0.0211692 -0.646311 -0.200287 -0.996431
4 1 15.8974 0.623845 0.879725 -0.898602 0.623845 0.879725 -0.272517 0.805092 1.67219
5 1 1.33412 15.6515 0.226401 1.33412 -1.14451 0.226401 -1.65886 0.0297133 2.41565
6 1 2.42946 1.30556 0.147287 2.42946 1.30556 0.147287 -0.619939 -0.775784 1.87723
7 1 3.2246 0.372864 16.3859 3.2246 0.372864 -0.410036 -0.211289 -0.240383 -1.47338
8 1 1.47784 0.910951 16.7299 1.47784 0.910951 -0.0660871 -0.56544 -1.11068 0.452068
9 1 4.31699 0.38947 0.127203 4.31699 0.38947 0.127203 -0.00845161 -2.01682 0.290998
10 1 4.34031 2.11969 16.5158 4.34031 2.11969 -0.280164 0.508403 0.369565 -1.09966
11 1 5.11987 0.906717 0.130418 5.11987 0.906717 0.130418 -1.02044 1.25008 1.26432
12 1 3.11362 1.25653 1.3472 3.11362 1.25653 1.3472 -1.5939 -0.885635 0.759747
13 1 5.46325 16.7321 16.1058 5.46325 -0.0638559 -0.690157 0.397845 -0.246329 1.83309
14 1 6.68971 0.636867 0.813328 6.68971 0.636867 0.813328 -0.470418 0.143958 -0.113987
15 1 5.22371 16.4287 0.498077 5.22371 -0.367263 0.498077 1.30336 -0.414431 -0.0544846
16 1 6.36457 1.36163 16.7147 6.36457 1.36163 -0.0812703 -0.0641493 -1.3112 2.55249
17 1 5.6409 0.369862 1.1625 5.6409 0.369862 1.1625 -0.633608 -1.15602 -1.18129
18 1 7.65073 0.735553 1.50768 7.65073 0.735553 1.50768 0.321241 -2.06733 1.03218
19 1 8.9819 0.77918 1.50541 8.9819 0.77918 1.50541 -0.731416 0.0726891 0.287647
20 1 7.01969 1.67424 1.52799 7.01969 1.67424 1.52799 -3.35443 -0.663884 -2.2826
21 1 8.63977 0.555819 0.572869 8.63977 0.555819 0.572869 0.775513 2.02272 0.387931
24 1 9.06427 2.04445 1.34942 9.06427 2.04445 1.34942 2.39595 -0.72426 0.550694
22 1 8.16248 1.34113 0.914051 8.16248 1.34113 0.914051 -0.452232 -0.401195 1.07479
23 1 10.3601 1.12051 0.314213 10.3601 1.12051 0.314213 0.640495 -1.35435 -2.12704
25 1 10.5247 16.7725 0.234138 10.5247 -0.0234305 0.234138 2.71052 -0.111278 2.41535
28 1 10.4811 2.30637 0.9947 10.4811 2.30637 0.9947 -1.40765 2.1556 1.69488
26 1 11.2722 0.769826 0.546846 11.2722 0.769826 0.546846 0.224563 -0.810751 -0.0588673
27 1 10.757 0.168219 1.18089 10.757 0.168219 1.18089 2.53145 -1.73741 -1.38241
29 1 12.1448 0.306614 0.341976 12.1448 0.306614 0.341976 -0.637383 -0.835788 1.42251
32 1 11.6755 0.847472 1.54488 11.6755 0.847472 1.54488 -0.0518548 -0.385527 0.530527
30 1 13.1314 0.619221 0.240279 13.1314 0.619221 0.240279 0.807347 0.618513 0.645822
31 1 12.7451 0.370181 1.30603 12.7451 0.370181 1.30603 -1.91842 0.637957 -1.59331
33 1 13.0696 15.9341 16.5515 13.0696 -0.86185 -0.244454 0.96751 1.17479 0.314401
36 1 13.6884 0.931447 1.26396 13.6884 0.931447 1.26396 0.228887 -0.177508 -0.341408
34 1 13.6235 1.1097 15.942 13.6235 1.1097 -0.853922 0.987635 -1.15972 -0.275699
35 1 14.5581 0.188798 0.17248 14.5581 0.188798 0.17248 2.00157 2.81174 -0.614776
37 1 15.0041 0.375539 16.0075 15.0041 0.375539 -0.788436 -0.620447 0.713236 0.102826
40 1 15.547 0.0749761 0.0278982 15.547 0.0749761 0.0278982 -0.764701 2.11225 -0.0751054
38 1 16.2909 0.957462 15.9094 16.2909 0.957462 -0.886585 0.657647 1.03612 -1.61375
39 1 16.4235 16.4816 0.831886 16.4235 -0.31432 0.831886 0.692886 -1.30771 1.02705
41 1 0.629567 1.14451 0.436142 0.629567 1.14451 0.436142 -1.76467 -1.88713 -0.635999
42 1 2.21874 2.77395 0.724651 2.21874 2.77395 0.724651 0.962308 -0.748564 1.14592
43 1 1.42946 0.615659 0.878995 1.42946 0.615659 0.878995 -1.55613 0.747595 0.164183
44 1 0.699428 2.26208 0.495143 0.699428 2.26208 0.495143 -0.933423 1.6357 -0.448487
45 1 1.54709 1.8729 0.542708 1.54709 1.8729 0.542708 1.19321 2.95265 2.23664
46 1 3.3331 1.78257 16.398 3.3331 1.78257 -0.39801 0.137695 -0.42066 -0.0423584
47 1 2.47168 0.459536 0.702161 2.47168 0.459536 0.702161 1.90206 -1.48 -0.615822
48 1 1.98591 1.84327 1.6032 1.98591 1.84327 1.6032 -0.495062 2.40145 -0.306528
49 1 3.65295 1.34569 0.431836 3.65295 1.34569 0.431836 -0.712608 -0.193884 0.351514
50 1 3.69694 2.54614 0.495423 3.69694 2.54614 0.495423 0.095556 3.05679 0.815232
51 1 5.55949 2.34236 0.926773 5.55949 2.34236 0.926773 -0.875339 0.133993 -1.11346
52 1 2.8598 1.97381 0.678418 2.8598 1.97381 0.678418 0.104429 0.640728 -0.265585
53 1 5.36934 1.92016 16.4992 5.36934 1.92016 -0.296812 0.0224475 -1.80035 -0.136642
54 1 6.43951 1.99688 0.636703 6.43951 1.99688 0.636703 0.316195 -1.26557 0.5427
55 1 6.03184 1.78057 1.83135 6.03184 1.78057 1.83135 0.313417 1.27443 0.965794
56 1 5.90912 3.11038 1.70339 5.90912 3.11038 1.70339 0.501308 -0.0411735 0.855339
57 1 7.19955 1.19122 16.0639 7.19955 1.19122 -0.732097 1.61631 -0.153794 2.60349
58 1 7.91687 2.54186 16.4808 7.91687 2.54186 -0.315177 0.93298 -1.27876 -0.0827191
59 1 7.82367 2.36384 0.900967 7.82367 2.36384 0.900967 -0.237761 1.28212 0.218588
60 1 6.97496 2.67048 1.24705 6.97496 2.67048 1.24705 0.343341 1.6144 0.333539
61 1 7.33681 1.29083 0.221084 7.33681 1.29083 0.221084 3.61881 -1.29784 1.88017
64 1 8.5891 3.00597 0.449598 8.5891 3.00597 0.449598 0.849567 2.99789 -0.0469936
62 1 8.85429 2.02583 0.410438 8.85429 2.02583 0.410438 -0.378518 -0.998986 -0.777289
63 1 9.54575 2.92774 0.904939 9.54575 2.92774 0.904939 1.20697 1.04789 -0.569761
65 1 10.0077 2.26088 16.71 10.0077 2.26088 -0.0859201 0.516789 1.10745 -0.620692
68 1 8.2542 4.38448 0.606596 8.2542 4.38448 0.606596 -1.29124 -2.23343 0.943412
66 1 10.5086 3.21483 0.460616 10.5086 3.21483 0.460616 -1.72628 0.840924 0.890254
67 1 10.9974 1.48238 1.50302 10.9974 1.48238 1.50302 -0.370776 -1.14604 0.846504
69 1 11.157 1.86003 0.302633 11.157 1.86003 0.302633 -1.02415 0.996593 -1.00399
72 1 11.6323 2.80297 1.14013 11.6323 2.80297 1.14013 -1.84581 1.93043 -0.0427507
70 1 12.5482 1.92082 0.132138 12.5482 1.92082 0.132138 0.659079 0.876346 0.277666
71 1 12.1369 1.31335 0.748211 12.1369 1.31335 0.748211 1.5631 0.55428 -2.06119
73 1 13.8949 1.39037 0.103153 13.8949 1.39037 0.103153 1.26456 0.593401 0.672968
76 1 14.2875 2.2608 0.925623 14.2875 2.2608 0.925623 0.575228 -0.869859 -0.302429
74 1 15.4586 1.91534 0.89227 15.4586 1.91534 0.89227 -1.82949 1.34929 -0.000401948
75 1 14.5302 1.31937 0.871996 14.5302 1.31937 0.871996 2.2363 -0.243745 0.91163
77 1 14.9377 1.2446 16.5717 14.9377 1.2446 -0.224223 0.240876 0.0382127 0.710896
80 1 15.9486 2.62314 1.67999 15.9486 2.62314 1.67999 0.293638 0.217395 0.843526
78 1 0.279796 1.95245 16.4294 17.0758 1.95245 -0.366522 0.650014 -2.14492 -0.605427
79 1 16.1406 1.30194 0.159735 16.1406 1.30194 0.159735 -0.19059 -0.847593 -0.81056
81 1 0.629461 2.85594 16.2843 0.629461 2.85594 -0.511646 -0.0730696 -1.66292 -1.18438
82 1 1.26872 4.44675 1.36831 1.26872 4.44675 1.36831 -0.598698 -3.02763 -1.45198
83 1 0.614217 3.49085 0.533424 0.614217 3.49085 0.533424 -0.0344064 -1.53785 -0.155449
84 1 0.0854612 3.98286 1.62576 0.0854612 3.98286 1.62576 0.86467 -1.01741 -0.460192
85 1 1.74632 3.43964 0.30636 1.74632 3.43964 0.30636 0.768816 -0.00785975 -1.50729
86 1 2.38538 4.51541 16.6151 2.38538 4.51541 -0.180842 -1.17964 -1.7525 1.21788
87 1 2.75662 3.393 16.7365 2.75662 3.393 -0.0594777 1.13552 0.805806 0.487286
88 1 2.02684 3.5972 1.23373 2.02684 3.5972 1.23373 -0.262111 -3.22376 2.0869
89 1 4.03879 3.11136 16.392 4.03879 3.11136 -0.403988 1.01799 -1.16377 0.33356
90 1 4.20496 4.07029 16.2051 4.20496 4.07029 -0.590824 -0.599288 -0.436297 0.164233
91 1 4.45724 3.63603 0.444993 4.45724 3.63603 0.444993 2.71963 2.29784 -1.94365
92 1 3.40628 4.11151 0.0667795 3.40628 4.11151 0.0667795 2.26811 -0.691457 1.09673
93 1 6.06494 2.70172 16.6677 6.06494 2.70172 -0.128239 -0.26902 -0.388588 0.294924
94 1 5.25342 4.62896 15.9424 5.25342 4.62896 -0.853519 -0.26026 -0.0267626 -1.25357
95 1 6.95809 3.06748 0.343448 6.95809 3.06748 0.343448 1.22504 -0.7674 -0.564902
96 1 5.50665 3.26292 0.683399 5.50665 3.26292 0.683399 -0.885527 -0.827203 0.417285
97 1 7.03446 3.75241 16.1686 7.03446 3.75241 -0.627391 0.312862 -0.76958 -0.602139
98 1 7.82623 4.10353 15.7625 7.82623 4.10353 -1.0335 1.83748 -2.23485 0.891782
99 1 7.8948 3.53701 16.7588 7.8948 3.53701 -0.0371456 0.223275 -0.730223 0.814061
100 1 7.19334 4.20824 0.277417 7.19334 4.20824 0.277417 -0.652581 1.10971 0.094402
101 1 8.59779 3.26573 16.1918 8.59779 3.26573 -0.604115 1.27251 0.21031 0.96676
104 1 8.13808 4.93977 16.2364 8.13808 4.93977 -0.559525 0.3886 -1.21523 -2.14933
102 1 9.65611 4.09957 16.1622 9.65611 4.09957 -0.633717 0.066269 0.78408 -1.24866
103 1 7.71593 3.3913 1.05794 7.71593 3.3913 1.05794 0.0215772 -1.18444 2.08227
105 1 10.2443 4.21668 0.704629 10.2443 4.21668 0.704629 -0.375884 0.826189 -0.875399
108 1 9.14365 4.63439 0.0541999 9.14365 4.63439 0.0541999 -1.28265 0.217375 -0.402208
106 1 11.1395 3.90467 1.31258 11.1395 3.90467 1.31258 0.0410032 0.778433 1.92292
107 1 11.4104 3.99445 0.273366 11.4104 3.99445 0.273366 1.18792 -0.0650663 -0.920959
109 1 13.4176 2.96348 0.952167 13.4176 2.96348 0.952167 1.16256 0.501765 1.24294
112 1 11.9501 4.31003 1.96635 11.9501 4.31003 1.96635 -1.36694 0.792797 -0.1802
110 1 12.4632 3.57349 0.935246 12.4632 3.57349 0.935246 0.0728306 -0.243419 0.0652524
111 1 11.9677 3.2227 1.94173 11.9677 3.2227 1.94173 -1.48041 1.08918 -0.188585
113 1 13.2351 3.92581 1.67405 13.2351 3.92581 1.67405 -0.611984 -0.621891 -0.847364
116 1 13.9297 3.69482 2.56738 13.9297 3.69482 2.56738 -0.547934 -1.04596 0.504091
114 1 14.4679 3.39903 0.606342 14.4679 3.39903 0.606342 1.11356 -0.596356 0.635071
115 1 14.9887 2.48607 2.22604 14.9887 2.48607 2.22604 -0.443435 -0.354971 1.24374
117 1 14.8486 2.3141 0.0920436 14.8486 2.3141 0.0920436 -0.417423 -0.388537 0.660784
120 1 15.545 3.17455 16.4622 15.545 3.17455 -0.333794 0.679628 0.131478 -0.916309
118 1 16.5337 3.84288 16.6945 16.5337 3.84288 -0.101495 -1.64476 -0.808989 1.05018
119 1 16.2705 2.41437 0.32183 16.2705 2.41437 0.32183 -0.0221636 -1.46289 1.19607
121 1 0.142581 4.57095 0.74607 0.142581 4.57095 0.74607 0.809352 -0.684159 -0.554212
122 1 0.655606 5.41183 0.56584 0.655606 5.41183 0.56584 -1.66757 -0.38715 -0.539681
123 1 16.2874 4.955 2.24434 -0.508573 4.955 2.24434 -1.97802 0.168238 -1.06148
124 1 15.9655 4.76619 1.25502 -0.830463 4.76619 1.25502 0.0764133 1.21315 -1.49802
125 1 1.63821 5.41757 0.548187 1.63821 5.41757 0.548187 -0.0500555 -2.88513 1.71246
126 1 3.31238 6.22884 0.472221 3.31238 6.22884 0.472221 -0.834426 -1.66088 1.55869
127 1 2.74434 4.87883 0.90185 2.74434 4.87883 0.90185 -0.00745335 0.160009 0.652682
128 1 1.4482 5.40916 1.63022 1.4482 5.40916 1.63022 0.723843 -0.930444 -0.329009
129 1 3.78932 5.3494 16.382 3.78932 5.3494 -0.414005 1.07703 -1.55475 -0.683269
130 1 4.46271 6.20345 16.7249 4.46271 6.20345 -0.0710699 0.522167 2.92996 0.648493
131 1 4.06947 5.27805 0.701346 4.06947 5.27805 0.701346 0.925684 1.10852 -1.98736
132 1 3.50322 5.80209 1.49376 3.50322 5.80209 1.49376 -0.572027 0.232241 1.05691
133 1 4.75628 4.65425 0.0704026 4.75628 4.65425 0.0704026 -1.67709 0.580991 -1.24227
134 1 5.34558 6.71418 16.2713 5.34558 6.71418 -0.524693 1.45176 0.765276 -0.561188
135 1 5.73987 6.46707 0.403565 5.73987 6.46707 0.403565 1.20874 0.0635207 -1.7334
136 1 5.03943 6.08347 1.261 5.03943 6.08347 1.261 -0.146162 -1.25555 -1.74917
137 1 6.12366 4.98989 16.7458 6.12366 4.98989 -0.0501921 -0.992492 -1.34065 0.583846
138 1 7.76727 5.93864 16.5582 7.76727 5.93864 -0.237742 -2.48961 1.0296 0.442502
139 1 7.7058 5.23296 0.391661 7.7058 5.23296 0.391661 -2.00184 1.10076 0.170672
140 1 6.2113 6.11735 16.4053 6.2113 6.11735 -0.390674 0.576544 -1.2687 2.80931
141 1 8.6563 5.58522 0.240281 8.6563 5.58522 0.240281 -0.194032 -1.81087 0.791507
144 1 8.48222 5.71633 15.7469 8.48222 5.71633 -1.0491 0.551609 0.699483 -0.688821
142 1 9.46482 7.2707 0.075973 9.46482 7.2707 0.075973 1.26846 0.543409 -0.878051
143 1 9.08199 6.27724 1.22073 9.08199 6.27724 1.22073 0.930988 -1.32431 1.46438
145 1 10.4298 3.60188 15.4075 10.4298 3.60188 -1.38848 -2.22504 -1.00989 -0.764164
148 1 10.0233 6.69232 0.699374 10.0233 6.69232 0.699374 -1.76273 -1.84309 -0.0412991
146 1 10.9924 6.14617 0.962618 10.9924 6.14617 0.962618 -2.91359 2.08389 -0.717205
147 1 9.57665 5.88455 16.6776 9.57665 5.88455 -0.118381 -2.03363 1.03598 0.850637
149 1 11.1894 4.95943 0.342106 11.1894 4.95943 0.342106 0.0891607 1.87413 -1.1073
152 1 12.4688 5.59988 1.11055 12.4688 5.59988 1.11055 0.0745011 -1.7223 0.256345
150 1 11.625 6.73465 0.360247 11.625 6.73465 0.360247 -1.56826 -1.2979 0.559494
151 1 12.0045 4.45611 16.4031 12.0045 4.45611 -0.392824 -1.29583 1.90372 -0.562316
153 1 13.5515 4.1201 0.400039 13.5515 4.1201 0.400039 0.802156 -1.50811 -0.915033
156 1 13.3853 5.36341 1.58973 13.3853 5.36341 1.58973 0.527664 0.896675 -0.255426
154 1 14.1796 5.16723 0.429264 14.1796 5.16723 0.429264 0.41939 -1.32898 -1.58631
155 1 14.8261 4.21202 0.0989443 14.8261 4.21202 0.0989443 -1.05019 0.459077 2.1486
157 1 14.2084 4.72885 16.0203 14.2084 4.72885 -0.77567 1.22522 -0.792754 -1.90228
160 1 15.2143 5.33733 0.938326 15.2143 5.33733 0.938326 -1.16139 0.78041 -1.16871
158 1 16.1718 5.41296 0.204409 16.1718 5.41296 0.204409 -0.540925 0.224302 -2.42933
159 1 15.7097 4.45522 16.2306 15.7097 4.45522 -0.565321 -0.93968 -1.45607 0.024251
161 1 0.478868 6.89091 0.551836 0.478868 6.89091 0.551836 -0.362347 0.684967 1.7361
162 1 1.29198 6.29979 0.633319 1.29198 6.29979 0.633319 -0.736938 -0.890039 -0.448317
163 1 0.460718 8.03254 1.93872 0.460718 8.03254 1.93872 1.51045 3.29642 0.686504
164 1 16.2169 7.79732 1.16311 -0.579096 7.79732 1.16311 -0.590303 -0.842357 1.17465
165 1 2.22639 6.17879 16.7652 2.22639 6.17879 -0.0308036 0.669219 1.11789 -1.53447
166 1 1.75979 7.10066 16.6327 1.75979 7.10066 -0.16322 -1.0859 -2.44562 -0.00285479
167 1 2.47208 5.86174 1.19339 2.47208 5.86174 1.19339 -1.68505 -1.16928 0.463545
168 1 1.12486 7.88751 0.888858 1.12486 7.88751 0.888858 0.0820491 -0.596433 0.995256
169 1 3.30878 6.83306 1.34064 3.30878 6.83306 1.34064 0.722472 0.639569 0.8199
170 1 2.85746 7.14556 0.228847 2.85746 7.14556 0.228847 -2.41985 -1.69328 -1.4596
171 1 4.87026 7.07177 0.730509 4.87026 7.07177 0.730509 -0.781894 1.62051 0.15602
172 1 2.01948 6.73309 1.3737 2.01948 6.73309 1.3737 -0.735374 -2.66935 0.930737
173 1 3.79357 7.07435 0.14775 3.79357 7.07435 0.14775 -1.10951 0.431187 3.80355
174 1 5.34359 8.11471 0.153486 5.34359 8.11471 0.153486 1.48703 -0.99149 0.853327
175 1 5.90177 7.48331 0.754587 5.90177 7.48331 0.754587 0.242853 0.637275 0.501018
176 1 4.41969 7.86323 0.378208 4.41969 7.86323 0.378208 0.325786 -2.31429 1.67811
177 1 6.79615 6.67887 0.372135 6.79615 6.67887 0.372135 0.125684 -0.824887 0.0504465
178 1 7.72402 7.29142 16.694 7.72402 7.29142 -0.101927 -1.01033 -1.38358 -0.169867
179 1 7.75566 6.71834 0.859959 7.75566 6.71834 0.859959 -0.596325 -1.90629 -1.05614
180 1 6.79621 7.51948 1.10463 6.79621 7.51948 1.10463 -1.59639 -0.123676 -2.49567
181 1 8.7814 6.68367 16.0628 8.7814 6.68367 -0.733178 1.23265 -2.04544 -1.65532
184 1 9.24448 8.19653 0.598678 9.24448 8.19653 0.598678 0.866135 -0.345663 1.10955
182 1 10.2836 8.08819 16.4506 10.2836 8.08819 -0.345376 -0.154557 1.86782 -0.555836
183 1 8.69015 6.56556 0.260404 8.69015 6.56556 0.260404 2.97735 1.74383 0.335924
185 1 11.013 5.94258 16.7034 11.013 5.94258 -0.0925888 1.13324 1.10433 0.0882732
188 1 11.295 7.56439 0.999425 11.295 7.56439 0.999425 -0.445718 2.0256 0.623128
186 1 11.0733 8.25539 0.209521 11.0733 8.25539 0.209521 1.84845 -0.0612475 0.398376
187 1 10.7713 7.22954 0.149909 10.7713 7.22954 0.149909 0.175931 1.19935 -0.861006
189 1 11.5295 6.46042 16.0096 11.5295 6.46042 -0.786381 1.15265 0.382258 -0.602157
192 1 12.1978 7.57488 0.97488 12.1978 7.57488 0.97488 0.248838 -0.136206 0.692231
190 1 14.1277 6.97856 16.5037 14.1277 6.97856 -0.292251 2.56909 -0.812127 1.29397
191 1 13.4597 6.55973 1.74708 13.4597 6.55973 1.74708 -0.811952 -1.52908 -2.22708
193 1 12.709 6.1134 16.2096 12.709 6.1134 -0.586377 0.778659 0.500192 1.8125
196 1 13.2296 5.929 0.341941 13.2296 5.929 0.341941 -1.19845 -1.07703 0.794945
194 1 14.678 7.71697 15.5178 14.678 7.71697 -1.27819 -0.527614 -2.76093 -1.81203
195 1 14.1122 6.09681 0.953375 14.1122 6.09681 0.953375 -1.41526 -1.3817 -1.33751
197 1 15.3944 6.28981 0.35271 15.3944 6.28981 0.35271 0.155653 -0.332168 -0.63908
200 1 15.2258 7.54255 1.1774 15.2258 7.54255 1.1774 2.41083 1.63891 -0.00378351
198 1 16.2166 6.61052 16.1976 16.2166 6.61052 -0.598383 0.649176 0.017274 -1.25634
199 1 16.0281 6.75749 1.18967 16.0281 6.75749 1.18967 -0.289078 -1.22558 -0.833229
201 1 0.176678 8.06491 0.596992 0.176678 8.06491 0.596992 -0.504815 0.943828 0.188466
203 1 0.890914 8.97886 0.337397 0.890914 8.97886 0.337397 0.291107 0.88376 -1.47563
205 1 2.16943 9.14192 0.234033 2.16943 9.14192 0.234033 -2.72083 -2.90071 1.82547
207 1 2.99964 9.12791 0.88823 2.99964 9.12791 0.88823 -0.414195 0.0266876 -0.58256
209 1 2.88625 8.36506 0.0828576 2.88625 8.36506 0.0828576 1.30674 2.4594 0.371636
211 1 3.58555 8.08081 0.783767 3.58555 8.08081 0.783767 -0.213381 1.35653 0.219567
213 1 5.10342 9.12751 0.2408 5.10342 9.12751 0.2408 -0.580462 -1.55843 -1.62698
215 1 5.33646 8.18858 1.39132 5.33646 8.18858 1.39132 -0.955708 -0.749934 0.894076
217 1 7.42776 8.20515 0.489809 7.42776 8.20515 0.489809 0.608183 0.0470928 -0.321403
219 1 8.28294 7.64972 0.811886 8.28294 7.64972 0.811886 1.0724 -0.0128561 0.263113
221 1 9.07246 8.82309 16.6254 9.07246 8.82309 -0.170535 -0.73852 0.125486 0.938028
223 1 10.4154 8.85339 0.702025 10.4154 8.85339 0.702025 0.796656 0.0215237 -1.16899
225 1 9.98302 8.93389 15.8742 9.98302 8.93389 -0.921718 2.39505 -0.274306 1.28965
227 1 10.8657 9.78428 0.587063 10.8657 9.78428 0.587063 -0.704445 -2.35446 1.5169
229 1 12.5505 7.2142 16.62 12.5505 7.2142 -0.176007 -1.06471 -1.75388 1.83107
231 1 12.9352 9.88264 1.07526 12.9352 9.88264 1.07526 -0.0518279 1.17063 0.517383
233 1 13.0473 8.09382 0.405036 13.0473 8.09382 0.405036 -1.12649 -0.650469 1.29168
235 1 13.4985 7.16633 0.619971 13.4985 7.16633 0.619971 0.821999 -0.602342 -1.74771
237 1 14.798 7.7019 0.0387212 14.798 7.7019 0.0387212 -0.248513 1.14949 0.283707
239 1 16.2963 7.25246 0.171802 16.2963 7.25246 0.171802 -1.41251 -0.478258 0.934651
202 1 0.665054 10.6977 0.186665 0.665054 10.6977 0.186665 0.725823 0.0953039 -0.54767
204 1 15.8167 8.06416 16.7574 -0.979256 8.06416 -0.0385331 -2.92467 0.553135 -1.12936
241 1 0.125451 9.81767 0.13906 0.125451 9.81767 0.13906 -0.69599 0.23984 0.446439
243 1 16.0411 9.4623 0.747183 -0.754823 9.4623 0.747183 0.950162 -1.1769 -0.694871
206 1 2.00872 9.82132 16.276 2.00872 9.82132 -0.519949 1.31358 1.69468 -0.759353
208 1 1.33373 10.5059 1.1107 1.33373 10.5059 1.1107 1.06618 2.61417 0.102671
245 1 1.61805 9.13009 15.7564 1.61805 9.13009 -1.03959 0.190818 -1.37737 1.963
247 1 2.40588 10.2663 0.538291 2.40588 10.2663 0.538291 0.179259 -0.474597 -0.0548285
210 1 4.2858 9.29153 16.1643 4.2858 9.29153 -0.631655 0.815649 -0.68673 -2.07958
212 1 4.04993 9.13145 0.474152 4.04993 9.13145 0.474152 0.182616 1.46634 0.448879
249 1 3.89586 10.1564 0.469559 3.89586 10.1564 0.469559 -1.47475 -0.773652 -1.60952
251 1 4.99326 10.1219 0.391008 4.99326 10.1219 0.391008 0.578825 -1.63264 0.826117
214 1 5.61699 9.51097 1.07243 5.61699 9.51097 1.07243 0.0446828 -0.914974 0.186303
216 1 4.71553 9.03839 1.25058 4.71553 9.03839 1.25058 1.60715 -1.4929 -1.97905
253 1 5.25449 9.89129 16.225 5.25449 9.89129 -0.570964 1.99144 0.56115 2.47273
255 1 5.63355 11.2777 0.457574 5.63355 11.2777 0.457574 -0.916023 -0.0353714 -0.25734
218 1 7.74558 8.98561 0.0617236 7.74558 8.98561 0.0617236 0.623089 1.53346 2.79116
220 1 6.30059 8.71088 0.920299 6.30059 8.71088 0.920299 -0.509843 -1.13641 0.869568
257 1 7.8695 10.065 0.0739763 7.8695 10.065 0.0739763 -0.183491 0.688588 -0.660126
259 1 7.63837 9.52423 1.3818 7.63837 9.52423 1.3818 1.64497 1.33262 3.04889
224 1 9.36388 9.3133 0.914903 9.36388 9.3133 0.914903 1.98584 1.09142 -1.01017
261 1 8.8053 9.84903 0.0514281 8.8053 9.84903 0.0514281 1.55732 0.138369 0.875198
222 1 9.72466 9.88642 15.6809 9.72466 9.88642 -1.11507 -0.539041 0.0685477 0.214561
228 1 10.1687 9.60254 16.5629 10.1687 9.60254 -0.233059 3.16372 -0.66073 -3.05968
263 1 9.48344 11.2169 1.4649 9.48344 11.2169 1.4649 -1.5793 0.586469 2.38289
265 1 10.7365 10.6517 16.464 10.7365 10.6517 -0.33199 -0.159173 0.581716 0.156589
226 1 11.1214 9.15824 16.5023 11.1214 9.15824 -0.293624 -0.824618 -1.34885 0.850647
232 1 12.3195 9.06427 0.456743 12.3195 9.06427 0.456743 1.88435 0.657958 -0.386487
267 1 11.0673 10.8203 0.649967 11.0673 10.8203 0.649967 0.778986 -1.25689 -0.234282
269 1 11.5398 10.1742 0.0516301 11.5398 10.1742 0.0516301 -0.636724 0.00984013 1.16719
230 1 12.1249 9.63055 16.3937 12.1249 9.63055 -0.402233 -0.274055 -1.96275 -0.0735069
236 1 13.2595 8.89901 1.0331 13.2595 8.89901 1.0331 0.470854 0.684523 1.26992
271 1 12.9443 10.5909 1.71227 12.9443 10.5909 1.71227 0.308499 1.48115 -0.212234
273 1 12.6754 10.2142 0.154899 12.6754 10.2142 0.154899 -1.68569 -1.51301 -0.435689
234 1 14.0898 8.94747 0.0769866 14.0898 8.94747 0.0769866 0.873352 -1.40174 -0.376754
240 1 15.0067 9.47348 0.479564 15.0067 9.47348 0.479564 -0.700666 1.34965 0.910702
275 1 13.6008 10.5833 0.799742 13.6008 10.5833 0.799742 0.234179 0.533019 0.657353
277 1 14.8304 9.29828 1.52673 14.8304 9.29828 1.52673 -1.51274 -0.578905 0.441035
238 1 0.381333 8.43699 16.3498 17.1773 8.43699 -0.446156 0.815171 0.450537 0.312624
279 1 16.4727 8.88983 1.45882 16.4727 8.88983 1.45882 0.619458 1.00466 1.27166
242 1 2.50733 11.6604 0.323641 2.50733 11.6604 0.323641 -1.17711 -2.28457 1.03561
244 1 0.116014 10.3942 1.1428 0.116014 10.3942 1.1428 0.0662784 0.259332 -0.656698
281 1 0.9155 11.3793 16.2014 0.9155 11.3793 -0.594517 -2.26668 0.183391 1.27545
283 1 1.29868 11.9957 0.148321 1.29868 11.9957 0.148321 -0.842366 -2.14406 1.60482
246 1 3.10674 10.4037 16.4974 3.10674 10.4037 -0.298532 1.82836 0.756493 0.0980628
248 1 1.26544 11.632 1.0871 1.26544 11.632 1.0871 -1.02935 -0.234869 1.22222
285 1 2.88944 12.6199 0.361507 2.88944 12.6199 0.361507 -1.49492 0.668253 0.475733
287 1 2.06872 12.2015 1.10419 2.06872 12.2015 1.10419 1.75022 -0.410887 -1.81287
250 1 4.87764 10.8375 16.3382 4.87764 10.8375 -0.457807 1.58132 -0.341759 -1.03443
252 1 3.52739 11.1881 0.493838 3.52739 11.1881 0.493838 -0.0872588 -0.43111 -1.18558
289 1 3.93638 12.6235 16.7171 3.93638 12.6235 -0.0788155 0.0243981 -0.933621 -0.262893
291 1 4.83284 12.2523 0.374039 4.83284 12.2523 0.374039 -1.07877 1.2083 0.103926
254 1 6.7296 12.1209 0.507993 6.7296 12.1209 0.507993 0.378009 1.15883 0.459775
256 1 5.83795 12.3192 16.7579 5.83795 12.3192 -0.0380237 -2.02172 1.6409 -1.54742
293 1 5.81517 13.3066 16.3498 5.81517 13.3066 -0.446115 2.36663 1.2408 0.346907
295 1 6.67426 11.172 0.242009 6.67426 11.172 0.242009 -0.831272 1.30558 0.513438
258 1 8.2396 12.3082 16.7134 8.2396 12.3082 -0.0825676 1.88235 -0.069278 -1.70279
260 1 6.74436 9.6508 0.572322 6.74436 9.6508 0.572322 1.61935 1.19029 1.56396
297 1 6.9161 12.8999 16.6256 6.9161 12.8999 -0.170364 0.0467569 -0.260815 -0.989035
299 1 8.05717 11.5799 1.73095 8.05717 11.5799 1.73095 0.459892 0.503083 1.21133
264 1 7.92219 11.4913 0.467133 7.92219 11.4913 0.467133 -1.34107 0.334356 -1.13514
301 1 7.77113 13.2607 0.334996 7.77113 13.2607 0.334996 1.50524 -1.55452 -0.141921
262 1 8.75854 10.8915 0.0101219 8.75854 10.8915 0.0101219 -0.719535 -0.789004 -0.455811
268 1 9.59295 10.6553 0.422473 9.59295 10.6553 0.422473 -0.231882 -0.873285 -0.58948
303 1 9.5414 12.0951 0.524387 9.5414 12.0951 0.524387 -1.5935 1.03194 1.18008
305 1 9.34251 12.9503 0.963604 9.34251 12.9503 0.963604 -1.05939 -0.000304623 0.257744
266 1 10.1973 11.4271 16.5574 10.1973 11.4271 -0.23854 0.697125 -0.473086 2.44839
272 1 11.8723 10.2192 1.02458 11.8723 10.2192 1.02458 0.0833194 -0.243041 -1.3733
307 1 11.2321 12.0561 0.488887 11.2321 12.0561 0.488887 -0.824093 1.93789 1.10281
309 1 12.1611 11.636 0.694262 12.1611 11.636 0.694262 1.01874 -0.641654 1.39853
270 1 13.0616 10.9663 16.5018 13.0616 10.9663 -0.294179 -0.194787 1.46474 0.00638931
276 1 13.5601 11.4916 0.391482 13.5601 11.4916 0.391482 -0.0326944 -0.376523 0.439842
311 1 12.3552 11.4875 1.99625 12.3552 11.4875 1.99625 -0.628541 0.46904 -1.21001
313 1 13.9209 12.4529 0.591474 13.9209 12.4529 0.591474 1.58126 0.0883894 1.50294
274 1 14.1662 10.8424 16.7133 14.1662 10.8424 -0.0826344 1.47256 -1.05388 -0.413546
280 1 16.0682 11.2409 1.39447 16.0682 11.2409 1.39447 2.79888 1.66894 1.165
315 1 14.4559 11.5495 1.16386 14.4559 11.5495 1.16386 -0.566441 -1.72945 1.84544
317 1 15.3308 11.4939 0.670888 15.3308 11.4939 0.670888 -1.23724 0.0326851 1.41068
278 1 15.785 10.514 0.698416 15.785 10.514 0.698416 0.0566859 0.249014 -0.916575
319 1 16.1061 12.1488 0.905297 16.1061 12.1488 0.905297 0.160064 -0.0329681 1.14452
282 1 0.620734 13.052 16.4338 0.620734 13.052 -0.362121 0.958556 1.76229 -0.353512
284 1 0.704831 12.433 0.887912 0.704831 12.433 0.887912 -0.299084 1.17527 -0.135941
321 1 0.848908 13.5673 0.435098 0.848908 13.5673 0.435098 0.401744 2.64989 1.44372
323 1 1.92908 13.1325 0.880501 1.92908 13.1325 0.880501 0.485938 0.298568 -0.39166
286 1 3.59253 14.1971 0.0631098 3.59253 14.1971 0.0631098 -0.102994 -1.08586 -0.901528
288 1 2.7483 13.8886 0.962869 2.7483 13.8886 0.962869 -0.234056 1.41124 0.0747774
325 1 1.88395 13.4711 16.7264 1.88395 13.4711 -0.0695551 -1.32612 1.94013 0.0752806
327 1 2.45079 14.7798 1.48724 2.45079 14.7798 1.48724 1.82483 0.391089 0.910583
290 1 4.79477 13.2538 16.7168 4.79477 13.2538 -0.0791172 -0.309897 1.31711 0.926394
292 1 3.99177 12.1928 0.964337 3.99177 12.1928 0.964337 1.66205 0.502167 1.37528
329 1 3.55749 13.3545 0.494833 3.55749 13.3545 0.494833 -0.517773 2.74669 0.514252
331 1 4.58885 12.9956 1.20463 4.58885 12.9956 1.20463 1.13638 -0.229484 -2.85856
294 1 6.42933 12.8249 1.49852 6.42933 12.8249 1.49852 -0.952521 0.215037 1.64801
296 1 5.46841 12.661 1.43095 5.46841 12.661 1.43095 1.74355 -1.05265 -1.22505
333 1 6.4302 14.1562 16.0241 6.4302 14.1562 -0.771841 1.32611 -1.70176 1.50046
335 1 6.35861 14.382 0.937923 6.35861 14.382 0.937923 -0.54822 -0.791763 -0.0378007
298 1 7.40061 12.332 1.12845 7.40061 12.332 1.12845 1.41706 0.824094 -1.35468
300 1 7.21376 12.4822 2.14558 7.21376 12.4822 2.14558 1.8155 -0.946649 1.58504
337 1 6.9837 13.8785 0.139478 6.9837 13.8785 0.139478 0.0770402 -0.721986 0.751581
339 1 7.02206 13.634 1.12664 7.02206 13.634 1.12664 -1.0257 1.21065 -1.39282
304 1 8.72726 12.0472 1.24128 8.72726 12.0472 1.24128 0.769044 0.393378 -0.108358
341 1 7.7443 14.1609 16.3374 7.7443 14.1609 -0.458607 0.533268 -1.9433 1.58196
302 1 8.92768 13.5265 0.162937 8.92768 13.5265 0.162937 1.36858 0.224563 -0.0231881
308 1 9.4331 14.0003 1.01186 9.4331 14.0003 1.01186 0.337489 3.10939 0.604033
343 1 8.15955 13.0226 1.5375 8.15955 13.0226 1.5375 0.975101 0.419754 0.0998636
345 1 9.92457 13.074 16.7295 9.92457 13.074 -0.0664917 -0.966796 0.275614 0.42701
306 1 10.6726 12.4708 16.3182 10.6726 12.4708 -0.477753 0.35489 1.09922 -1.0823
312 1 11.9918 12.4796 1.27784 11.9918 12.4796 1.27784 0.526537 -0.0629556 0.772214
347 1 10.4228 13.6455 0.710851 10.4228 13.6455 0.710851 -2.46045 0.227248 1.57211
349 1 11.3948 13.6518 0.441232 11.3948 13.6518 0.441232 0.379363 0.869501 -0.0618749
310 1 12.6787 12.1282 16.6635 12.6787 12.1282 -0.132491 -0.85088 -1.34867 -1.33536
316 1 13.4971 13.1419 1.27756 13.4971 13.1419 1.27756 -0.867657 0.818337 0.164578
351 1 12.982 13.1207 0.341799 12.982 13.1207 0.341799 1.14323 -1.48811 -0.731304
353 1 13.3778 13.5428 16.2552 13.3778 13.5428 -0.540775 1.73723 0.0083235 -2.10358
314 1 14.7382 12.8184 16.3416 14.7382 12.8184 -0.454383 0.238723 1.81494 0.541836
320 1 15.0085 12.5764 0.661241 15.0085 12.5764 0.661241 0.504579 0.714724 1.78764
355 1 14.2563 13.6998 0.419091 14.2563 13.6998 0.419091 0.143844 -2.48117 0.535555
357 1 15.5572 13.3341 16.4585 15.5572 13.3341 -0.337449 -0.305134 -1.03701 -1.44885
318 1 16.6573 12.6876 0.32148 16.6573 12.6876 0.32148 -0.405028 1.08933 -0.294452
359 1 16.2758 14.3676 1.20269 16.2758 14.3676 1.20269 -0.113125 -2.1453 0.239492
322 1 1.46802 14.489 16.7501 1.46802 14.489 -0.0458816 -0.412309 0.0946526 0.216617
324 1 0.591204 14.545 1.24491 0.591204 14.545 1.24491 -0.6059 -1.07733 -1.98342
361 1 0.723875 14.1869 16.139 0.723875 14.1869 -0.656984 1.19998 -0.191022 0.610424
363 1 1.70835 15.5498 1.20577 1.70835 15.5498 1.20577 1.09609 1.51077 0.707935
326 1 3.08215 14.7195 15.8559 3.08215 14.7195 -0.940083 1.80264 0.73601 -1.89987
328 1 1.76885 14.1685 0.888383 1.76885 14.1685 0.888383 1.92254 0.355997 -3.0209
365 1 2.21416 15.2126 16.4028 2.21416 15.2126 -0.393211 2.01837 1.49362 2.4634
367 1 3.41215 14.7116 1.14748 3.41215 14.7116 1.14748 1.4903 2.3288 -0.264853
330 1 5.93299 13.2452 0.564588 5.93299 13.2452 0.564588 2.9528 -0.544553 -0.881616
332 1 3.67433 13.973 1.81798 3.67433 13.973 1.81798 -0.0153655 1.04752 0.0446886
369 1 3.52133 15.2787 0.0531792 3.52133 15.2787 0.0531792 0.249115 0.969421 -1.17402
371 1 4.38396 14.7966 1.54006 4.38396 14.7966 1.54006 -0.153772 1.8054 -2.65288
334 1 5.92736 14.9987 16.3188 5.92736 14.9987 -0.477161 0.196174 0.756068 -0.53766
336 1 5.40982 14.4192 0.343278 5.40982 14.4192 0.343278 1.44043 -0.572623 0.888424
373 1 4.40935 14.1558 0.675668 4.40935 14.1558 0.675668 0.240759 -1.60862 1.60361
375 1 6.08237 15.3535 0.572718 6.08237 15.3535 0.572718 0.719892 0.587005 -0.441835
338 1 7.75361 14.7316 0.581563 7.75361 14.7316 0.581563 -0.884003 -1.67982 1.23482
340 1 7.09533 14.9295 16.4056 7.09533 14.9295 -0.390404 -0.316819 1.63491 0.0919272
377 1 8.13943 16.5516 1.33096 8.13943 16.5516 1.33096 -0.575683 -0.243832 1.07855
379 1 7.95599 15.1502 1.48317 7.95599 15.1502 1.48317 -1.36177 2.92214 -0.697745
344 1 8.20637 13.961 0.917504 8.20637 13.961 0.917504 1.94483 -0.0481153 0.262377
381 1 8.77771 14.5154 0.250267 8.77771 14.5154 0.250267 -3.54819 -2.74974 -0.789421