ITEM: TIMESTEP
0
ITEM: NUMBER OF ATOMS
4000
ITEM: BOX BOUNDS pp pp pp
0.0000000000000000e+00 1.6795961913825074e+01
0.0000000000000000e+00 1.6795961913825074e+01
0.0000000000000000e+00 1.6795961913825074e+01
ITEM: ATOMS id type x y z xu yu zu vx vy vz
1 1 0 0 0 0 0 0 -0.142234 0.721514 -0.724381
2 1 0.839798 0.839798 0 0.839798 0.839798 0 1.99675 2.59469 2.96369
3 1 0.839798 0 0.839798 0.839798 0 0.839798 -0.222614 -1.56863 -2.98119
4 1 0 0.839798 0.839798 0 0.839798 0.839798 1.99969 -2.42132 -0.990258
5 1 1.6796 0 0 1.6796 0 0 0.347584 2.05871 -0.00133589
6 1 2.51939 0.839798 0 2.51939 0.839798 0 -2.47095 -2.75679 -2.71461
7 1 2.51939 0 0.839798 2.51939 0 0.839798 1.85977 -1.56027 -1.66743
8 1 1.6796 0.839798 0.839798 1.6796 0.839798 0.839798 0.195696 1.4479 -2.83051
9 1 3.35919 0 0 3.35919 0 0 -0.120002 -0.575316 -0.31959
10 1 4.19899 0.839798 0 4.19899 0.839798 0 0.418371 0.366385 -0.206115
11 1 4.19899 0 0.839798 4.19899 0 0.839798 -0.180817 -0.621394 -0.620831
12 1 3.35919 0.839798 0.839798 3.35919 0.839798 0.839798 3.04719 -2.30608 0.631913
13 1 5.03879 0 0 5.03879 0 0 0.985777 -0.617231 2.81682
14 1 5.87859 0.839798 0 5.87859 0.839798 0 1.03527 2.69086 -1.46426
15 1 5.87859 0 0.839798 5.87859 0 0.839798 1.04026 1.79816 -0.559186
16 1 5.03879 0.839798 0.839798 5.03879 0.839798 0.839798 -1.53781 -1.38641 -0.643563
17 1 6.71838 0 0 6.71838 0 0 0.0836872 -0.226786 -2.8738
18 1 7.55818 0.839798 0 7.55818 0.839798 0 -0.0866509 -2.49576 -0.161142
19 1 7.55818 0 0.839798 7.55818 0 0.839798 1.88887 -2.35369 -1.20935
20 1 6.71838 0.839798 0.839798 6.71838 0.839798 0.839798 1.4552 2.70208 -0.344481
21 1 8.39798 0 0 8.39798 0 0 2.26147 0.527633 0.471938
24 1 8.39798 0.839798 0.839798 8.39798 0.839798 0.839798 1.40788 -0.370532 0.30103
22 1 9.23778 0.839798 0 9.23778 0.839798 0 -1.47754 1.60451 -1.5554
23 1 9.23778 0 0.839798 9.23778 0 0.839798 -1.77381 -0.54462 1.52862
25 1 10.0776 0 0 10.0776 0 0 0.806197 -0.960664 0.326529
28 1 10.0776 0.839798 0.839798 10.0776 0.839798 0.839798 0.386488 2.75624 2.67748
26 1 10.9174 0.839798 0 10.9174 0.839798 0 0.433563 1.67952 1.25386
27 1 10.9174 0 0.839798 10.9174 0 0.839798 1.28447 -0.113618 0.125689
29 1 11.7572 0 0 11.7572 0 0 -0.73126 1.19655 0.140344
32 1 11.7572 0.839798 0.839798 11.7572 0.839798 0.839798 0.433279 2.95825 -0.880525
30 1 12.597 0.839798 0 12.597 0.839798 0 -1.91527 -1.18042 2.0987
31 1 12.597 0 0.839798 12.597 0 0.839798 2.3019 2.76338 1.68595
33 1 13.4368 0 0 13.4368 0 0 -2.41767 -2.4115 0.742691
36 1 13.4368 0.839798 0.839798 13.4368 0.839798 0.839798 -1.16203 0.457599 2.73806
34 1 14.2766 0.839798 0 14.2766 0.839798 0 1.72172 0.629828 0.498543
35 1 14.2766 0 0.839798 14.2766 0 0.839798 -2.44666 0.345062 -1.76377
37 1 15.1164 0 0 15.1164 0 0 -1.98562 1.84667 -1.66732
40 1 15.1164 0.839798 0.839798 15.1164 0.839798 0.839798 -0.994818 -1.44546 -1.30978
38 1 15.9562 0.839798 0 15.9562 0.839798 0 0.436464 2.05788 -1.9693
39 1 15.9562 0 0.839798 15.9562 0 0.839798 0.660415 -1.76586 2.28474
41 1 0 1.6796 0 0 1.6796 0 -1.17649 -0.712797 -0.696049
42 1 0.839798 2.51939 0 0.839798 2.51939 0 -1.17731 -2.27356 2.84691
43 1 0.839798 1.6796 0.839798 0.839798 1.6796 0.839798 -2.05269 -0.649472 -0.806271
44 1 0 2.51939 0.839798 0 2.51939 0.839798 -0.675105 1.54187 -1.933
45 1 1.6796 1.6796 0 1.6796 1.6796 0 -0.207198 -2.51789 2.92153
46 1 2.51939 2.51939 0 2.51939 2.51939 0 2.23606 2.9013 -2.6368
47 1 2.51939 1.6796 0.839798 2.51939 1.6796 0.839798 0.139453 -0.375653 -1.09985
48 1 1.6796 2.51939 0.839798 1.6796 2.51939 0.839798 -1.13048 -1.43696 2.47685
49 1 3.35919 1.6796 0 3.35919 1.6796 0 -1.64729 3.07704 -0.19211
50 1 4.19899 2.51939 0 4.19899 2.51939 0 0.633431 -1.70283 -2.77719
51 1 4.19899 1.6796 0.839798 4.19899 1.6796 0.839798 2.62815 0.660118 1.56943
52 1 3.35919 2.51939 0.839798 3.35919 2.51939 0.839798 -2.09363 0.707223 1.0002
53 1 5.03879 1.6796 0 5.03879 1.6796 0 0.945597 1.42685 0.262272
54 1 5.87859 2.51939 0 5.87859 2.51939 0 2.83597 -2.14571 -1.44494
55 1 5.87859 1.6796 0.839798 5.87859 1.6796 0.839798 -2.0496 2.99566 -1.15636
56 1 5.03879 2.51939 0.839798 5.03879 2.51939 0.839798 1.16654 1.54052 -0.499319
57 1 6.71838 1.6796 0 6.71838 1.6796 0 -1.61615 0.306134 -2.87214
58 1 7.55818 2.51939 0 7.55818 2.51939 0 1.23711 2.21258 -2.34107
59 1 7.55818 1.6796 0.839798 7.55818 1.6796 0.839798 0.652422 2.9941 2.78073
60 1 6.71838 2.51939 0.839798 6.71838 2.51939 0.839798 0.790473 0.86373 0.618924
61 1 8.39798 1.6796 0 8.39798 1.6796 0 -1.33473 0.902948 0.550984
64 1 8.39798 2.51939 0.839798 8.39798 2.51939 0.839798 0.753692 -0.442725 2.56497
62 1 9.23778 2.51939 0 9.23778 2.51939 0 -1.48163 -0.683589 0.336709
63 1 9.23778 1.6796 0.839798 9.23778 1.6796 0.839798 2.80349 2.26813 -0.183669
65 1 10.0776 1.6796 0 10.0776 1.6796 0 -1.90271 -1.88358 1.4153
68 1 10.0776 2.51939 0.839798 10.0776 2.51939 0.839798 -2.74736 2.43743 2.88179
66 1 10.9174 2.51939 0 10.9174 2.51939 0 1.09179 -2.92561 2.40112
67 1 10.9174 1.6796 0.839798 10.9174 1.6796 0.839798 3.07274 -2.1877 0.50234
69 1 11.7572 1.6796 0 11.7572 1.6796 0 -0.0734857 1.05141 -2.00508
72 1 11.7572 2.51939 0.839798 11.7572 2.51939 0.839798 -0.18017 -1.84769 -0.169705
70 1 12.597 2.51939 0 12.597 2.51939 0 1.21894 -0.791098 1.70757
71 1 12.597 1.6796 0.839798 12.597 1.6796 0.839798 2.6952 2.71498 -1.26803
73 1 13.4368 1.6796 0 13.4368 1.6796 0 2.11681 0.398408 -0.254442
76 1 13.4368 2.51939 0.839798 13.4368 2.51939 0.839798 -2.62864 1.9567 2.95593
74 1 14.2766 2.51939 0 14.2766 2.51939 0 1.11952 -2.62259 3.04129
75 1 14.2766 1.6796 0.839798 14.2766 1.6796 0.839798 1.86415 -0.504812 -0.712687
77 1 15.1164 1.6796 0 15.1164 1.6796 0 2.53183 2.64761 -2.65834
80 1 15.1164 2.51939 0.839798 15.1164 2.51939 0.839798 -0.280646 2.84309 -1.24678
78 1 15.9562 2.51939 0 15.9562 2.51939 0 1.15029 0.466293 -2.33545
79 1 15.9562 1.6796 0.839798 15.9562 1.6796 0.839798 -0.0470355 -1.93566 -2.91681
81 1 0 3.35919 0 0 3.35919 0 -1.2817 3.07669 -0.062175
82 1 0.839798 4.19899 0 0.839798 4.19899 0 0.357629 1.53769 0.41137
83 1 0.839798 3.35919 0.839798 0.839798 3.35919 0.839798 -0.313581 -0.359208 -2.90305
84 1 0 4.19899 0.839798 0 4.19899 0.839798 0.193699 -1.8806 -2.95689
85 1 1.6796 3.35919 0 1.6796 3.35919 0 1.05136 0.955822 0.185588
86 1 2.51939 4.19899 0 2.51939 4.19899 0 -2.7429 -1.22907 0.842776
87 1 2.51939 3.35919 0.839798 2.51939 3.35919 0.839798 -0.339076 0.550469 -2.76889
88 1 1.6796 4.19899 0.839798 1.6796 4.19899 0.839798 -1.17412 2.80891 -1.08339
89 1 3.35919 3.35919 0 3.35919 3.35919 0 -0.951744 2.81391 -1.65149
90 1 4.19899 4.19899 0 4.19899 4.19899 0 -2.74817 0.929208 0.418959
91 1 4.19899 3.35919 0.839798 4.19899 3.35919 0.839798 1.61848 1.22108 1.07206
92 1 3.35919 4.19899 0.839798 3.35919 4.19899 0.839798 2.74086 2.0436 0.01088
93 1 5.03879 3.35919 0 5.03879 3.35919 0 -2.14834 0.456204 -2.57491
94 1 5.87859 4.19899 0 5.87859 4.19899 0 -1.19739 -1.14651 -2.56353
95 1 5.87859 3.35919 0.839798 5.87859 3.35919 0.839798 -0.484381 1.71386 -2.22616
96 1 5.03879 4.19899 0.839798 5.03879 4.19899 0.839798 -2.25215 -2.39814 1.61137
97 1 6.71838 3.35919 0 6.71838 3.35919 0 0.495909 -2.78383 2.47683
98 1 7.55818 4.19899 0 7.55818 4.19899 0 -1.57737 -1.01326 -0.726914
99 1 7.55818 3.35919 0.839798 7.55818 3.35919 0.839798 1.36368 0.687237 -2.2738
100 1 6.71838 4.19899 0.839798 6.71838 4.19899 0.839798 2.78092 -2.14975 -2.68335
101 1 8.39798 3.35919 0 8.39798 3.35919 0 -2.4383 1.69943 -2.74398
104 1 8.39798 4.19899 0.839798 8.39798 4.19899 0.839798 1.16083 2.24746 -2.86449
102 1 9.23778 4.19899 0 9.23778 4.19899 0 0.895291 2.63168 1.74321
103 1 9.23778 3.35919 0.839798 9.23778 3.35919 0.839798 -1.95838 -0.0175492 0.000681663
105 1 10.0776 3.35919 0 10.0776 3.35919 0 0.210029 0.42156 1.81143
108 1 10.0776 4.19899 0.839798 10.0776 4.19899 0.839798 -1.0136 -2.70361 2.10349
106 1 10.9174 4.19899 0 10.9174 4.19899 0 -2.57252 1.69271 -0.846756
107 1 10.9174 3.35919 0.839798 10.9174 3.35919 0.839798 1.00437 -2.53242 0.495366
109 1 11.7572 3.35919 0 11.7572 3.35919 0 1.13626 0.498175 1.30129
112 1 11.7572 4.19899 0.839798 11.7572 4.19899 0.839798 1.33838 -1.19972 -1.73086
110 1 12.597 4.19899 0 12.597 4.19899 0 -2.29993 -1.04522 0.418621
111 1 12.597 3.35919 0.839798 12.597 3.35919 0.839798 0.182477 3.04467 -0.0528024
113 1 13.4368 3.35919 0 13.4368 3.35919 0 -1.41612 -0.32792 2.83454
116 1 13.4368 4.19899 0.839798 13.4368 4.19899 0.839798 -1.51016 -2.30996 1.99091
114 1 14.2766 4.19899 0 14.2766 4.19899 0 1.63731 -2.90596 0.0627565
115 1 14.2766 3.35919 0.839798 14.2766 3.35919 0.839798 1.2985 -0.257157 0.736669
117 1 15.1164 3.35919 0 15.1164 3.35919 0 -2.55749 0.31207 0.137871
120 1 15.1164 4.19899 0.839798 15.1164 4.19899 0.839798 0.468384 0.283769 2.25378
118 1 15.9562 4.19899 0 15.9562 4.19899 0 -2.70111 -0.510975 -1.48047
119 1 15.9562 3.35919 0.839798 15.9562 3.35919 0.839798 2.96497 0.873353 -0.936534
121 1 0 5.03879 0 0 5.03879 0 2.51824 -1.96353 0.299942
122 1 0.839798 5.87859 0 0.839798 5.87859 0 -1.38782 -2.3733 1.71026
123 1 0.839798 5.03879 0.839798 0.839798 5.03879 0.839798 1.49122 -2.70061 -1.88607
124 1 0 5.87859 0.839798 0 5.87859 0.839798 -0.888978 -0.639376 -0.463573
125 1 1.6796 5.03879 0 1.6796 5.03879 0 2.08561 2.30238 0.937062
126 1 2.51939 5.87859 0 2.51939 5.87859 0 -0.0269452 -2.95441 2.2424
127 1 2.51939 5.03879 0.839798 2.51939 5.03879 0.839798 2.1657 -0.386832 -1.49506
128 1 1.6796 5.87859 0.839798 1.6796 5.87859 0.839798 -1.2209 2.77951 0.771032
129 1 3.35919 5.03879 0 3.35919 5.03879 0 2.13107 -1.82586 -2.20387
130 1 4.19899 5.87859 0 4.19899 5.87859 0 1.87342 -1.90728 2.21688
131 1 4.19899 5.03879 0.839798 4.19899 5.03879 0.839798 -2.88502 -0.988878 -2.12972
132 1 3.35919 5.87859 0.839798 3.35919 5.87859 0.839798 1.23287 -2.56741 -0.871903
133 1 5.03879 5.03879 0 5.03879 5.03879 0 1.19303 -0.910463 -2.63882
134 1 5.87859 5.87859 0 5.87859 5.87859 0 -0.776545 2.1149 0.929674
135 1 5.87859 5.03879 0.839798 5.87859 5.03879 0.839798 -2.7126 -0.0232917 0.251623
136 1 5.03879 5.87859 0.839798 5.03879 5.87859 0.839798 -1.52326 1.24598 2.42284
137 1 6.71838 5.03879 0 6.71838 5.03879 0 -2.54422 -0.375489 1.6503
138 1 7.55818 5.87859 0 7.55818 5.87859 0 -1.13594 -2.60581 0.929707
139 1 7.55818 5.03879 0.839798 7.55818 5.03879 0.839798 1.12336 1.43271 1.8571
140 1 6.71838 5.87859 0.839798 6.71838 5.87859 0.839798 0.00735217 -1.05885 1.16204
141 1 8.39798 5.03879 0 8.39798 5.03879 0 2.02722 0.606197 2.48523
144 1 8.39798 5.87859 0.839798 8.39798 5.87859 0.839798 1.91069 1.65005 1.82705
142 1 9.23778 5.87859 0 9.23778 5.87859 0 2.11054 -2.05809 1.57831
143 1 9.23778 5.03879 0.839798 9.23778 5.03879 0.839798 1.19793 2.88784 1.1045
145 1 10.0776 5.03879 0 10.0776 5.03879 0 2.46925 3.07329 -2.85934
148 1 10.0776 5.87859 0.839798 10.0776 5.87859 0.839798 1.31377 2.35776 0.284256
146 1 10.9174 5.87859 0 10.9174 5.87859 0 -0.45214 -0.715905 1.4911
147 1 10.9174 5.03879 0.839798 10.9174 5.03879 0.839798 -0.735035 -1.77508 -1.35065
149 1 11.7572 5.03879 0 11.7572 5.03879 0 1.6957 -1.29739 1.68094
152 1 11.7572 5.87859 0.839798 11.7572 5.87859 0.839798 -2.81396 1.90358 -0.663432
150 1 12.597 5.87859 0 12.597 5.87859 0 0.75285 -2.48964 -0.088765
151 1 12.597 5.03879 0.839798 12.597 5.03879 0.839798 0.439038 2.98208 0.347125
153 1 13.4368 5.03879 0 13.4368 5.03879 0 -2.55805 2.94996 -1.21162
156 1 13.4368 5.87859 0.839798 13.4368 5.87859 0.839798 2.18414 1.05521 1.4207
154 1 14.2766 5.87859 0 14.2766 5.87859 0 -2.18432 0.57112 -0.414851
155 1 14.2766 5.03879 0.839798 14.2766 5.03879 0.839798 2.95096 1.2065 -1.90809
157 1 15.1164 5.03879 0 15.1164 5.03879 0 -0.533936 -2.60591 -0.900536
160 1 15.1164 5.87859 0.839798 15.1164 5.87859 0.839798 0.13442 -0.302082 1.66633
158 1 15.9562 5.87859 0 15.9562 5.87859 0 2.01429 0.996976 2.39931
159 1 15.9562 5.03879 0.839798 15.9562 5.03879 0.839798 0.269662 -1.25462 0.909703
161 1 0 6.71838 0 0 6.71838 0 0.303107 -1.58702 2.42485
162 1 0.839798 7.55818 0 0.839798 7.55818 0 2.24508 -2.70764 0.929174
163 1 0.839798 6.71838 0.839798 0.839798 6.71838 0.839798 2.3209 1.54685 3.03607
164 1 0 7.55818 0.839798 0 7.55818 0.839798 0.578327 -2.53168 0.958733
165 1 1.6796 6.71838 0 1.6796 6.71838 0 -2.19614 1.57691 0.318296
166 1 2.51939 7.55818 0 2.51939 7.55818 0 -1.57613 1.73094 0.671905
167 1 2.51939 6.71838 0.839798 2.51939 6.71838 0.839798 -1.47872 -0.176109 2.16397
168 1 1.6796 7.55818 0.839798 1.6796 7.55818 0.839798 -1.13683 0.568271 0.0777051
169 1 3.35919 6.71838 0 3.35919 6.71838 0 0.872569 1.74749 0.688009
170 1 4.19899 7.55818 0 4.19899 7.55818 0 -2.89135 1.45901 2.37405
171 1 4.19899 6.71838 0.839798 4.19899 6.71838 0.839798 -1.54161 1.28615 0.147159
172 1 3.35919 7.55818 0.839798 3.35919 7.55818 0.839798 2.07811 -2.85161 0.329546
173 1 5.03879 6.71838 0 5.03879 6.71838 0 -1.25915 1.0107 -2.74933
174 1 5.87859 7.55818 0 5.87859 7.55818 0 2.1576 2.55349 -0.0237248
175 1 5.87859 6.71838 0.839798 5.87859 6.71838 0.839798 -1.40111 -1.9953 -1.35726
176 1 5.03879 7.55818 0.839798 5.03879 7.55818 0.839798 2.21124 3.03561 -1.0808
177 1 6.71838 6.71838 0 6.71838 6.71838 0 -1.45616 -2.02598 -2.93298
178 1 7.55818 7.55818 0 7.55818 7.55818 0 -0.603272 -0.726324 1.76113
179 1 7.55818 6.71838 0.839798 7.55818 6.71838 0.839798 -1.1066 0.689764 -2.13214
180 1 6.71838 7.55818 0.839798 6.71838 7.55818 0.839798 0.591656 -2.28215 -2.457
181 1 8.39798 6.71838 0 8.39798 6.71838 0 -2.76855 3.00599 3.03947
184 1 8.39798 7.55818 0.839798 8.39798 7.55818 0.839798 1.75967 -2.6475 1.75019
182 1 9.23778 7.55818 0 9.23778 7.55818 0 -1.17384 1.58532 2.51168
183 1 9.23778 6.71838 0.839798 9.23778 6.71838 0.839798 1.87979 2.38571 -1.63474
185 1 10.0776 6.71838 0 10.0776 6.71838 0 0.977508 -0.489392 -1.61069
188 1 10.0776 7.55818 0.839798 10.0776 7.55818 0.839798 -1.55577 -0.905209 0.993157
186 1 10.9174 7.55818 0 10.9174 7.55818 0 -0.683827 0.0935549 -1.43851
187 1 10.9174 6.71838 0.839798 10.9174 6.71838 0.839798 -0.176858 -0.609838 0.0694907
189 1 11.7572 6.71838 0 11.7572 6.71838 0 0.11356 -0.12772 -1.01177
192 1 11.7572 7.55818 0.839798 11.7572 7.55818 0.839798 -2.29477 1.01362 -2.10303
190 1 12.597 7.55818 0 12.597 7.55818 0 -1.01438 2.35566 1.36376
191 1 12.597 6.71838 0.839798 12.597 6.71838 0.839798 -1.08333 -1.28328 3.01757
193 1 13.4368 6.71838 0 13.4368 6.71838 0 -2.42001 0.668271 -0.508642
196 1 13.4368 7.55818 0.839798 13.4368 7.55818 0.839798 1.46552 0.747313 -2.5525
194 1 14.2766 7.55818 0 14.2766 7.55818 0 -0.34377 0.272118 -0.0368923
195 1 14.2766 6.71838 0.839798 14.2766 6.71838 0.839798 2.19988 -0.38688 -2.31462
197 1 15.1164 6.71838 0 15.1164 6.71838 0 -0.392807 -1.39043 -1.67934
200 1 15.1164 7.55818 0.839798 15.1164 7.55818 0.839798 -2.56378 -2.56948 0.704592
198 1 15.9562 7.55818 0 15.9562 7.55818 0 0.483773 -1.13081 1.21367
199 1 15.9562 6.71838 0.839798 15.9562 6.71838 0.839798 -1.77912 0.922562 -2.42254
201 1 0 8.39798 0 0 8.39798 0 0.890649 -2.81512 2.71547
203 1 0.839798 8.39798 0.839798 0.839798 8.39798 0.839798 -0.323574 1.03088 -2.31589
205 1 1.6796 8.39798 0 1.6796 8.39798 0 0.290712 1.75293 1.33686
207 1 2.51939 8.39798 0.839798 2.51939 8.39798 0.839798 -0.521407 2.33894 -1.39136
209 1 3.35919 8.39798 0 3.35919 8.39798 0 -2.24253 1.96786 -2.87779
211 1 4.19899 8.39798 0.839798 4.19899 8.39798 0.839798 3.04726 -1.01273 2.26519
213 1 5.03879 8.39798 0 5.03879 8.39798 0 2.28602 1.87118 -0.923467
215 1 5.87859 8.39798 0.839798 5.87859 8.39798 0.839798 -0.690197 1.89966 -0.0848497
217 1 6.71838 8.39798 0 6.71838 8.39798 0 -1.53303 0.372778 -1.6142
219 1 7.55818 8.39798 0.839798 7.55818 8.39798 0.839798 1.61586 -0.46437 1.64498
221 1 8.39798 8.39798 0 8.39798 8.39798 0 -0.307374 1.15055 1.19806
223 1 9.23778 8.39798 0.839798 9.23778 8.39798 0.839798 0.267153 -1.08734 0.174138
225 1 10.0776 8.39798 0 10.0776 8.39798 0 -0.130291 1.87341 0.245592
227 1 10.9174 8.39798 0.839798 10.9174 8.39798 0.839798 -1.59196 1.73631 0.18573
229 1 11.7572 8.39798 0 11.7572 8.39798 0 -0.0899029 -2.72179 -1.10613
231 1 12.597 8.39798 0.839798 12.597 8.39798 0.839798 -0.285355 2.30512 -1.44656
233 1 13.4368 8.39798 0 13.4368 8.39798 0 -2.08948 -2.01949 -2.82303
235 1 14.2766 8.39798 0.839798 14.2766 8.39798 0.839798 -2.61049 -1.48074 -1.5706
237 1 15.1164 8.39798 0 15.1164 8.39798 0 3.08064 -2.40551 -1.30627
239 1 15.9562 8.39798 0.839798 15.9562 8.39798 0.839798 0.517878 -2.45991 -2.32469
202 1 0.839798 9.23778 0 0.839798 9.23778 0 1.54362 0.981721 0.021338
204 1 0 9.23778 0.839798 0 9.23778 0.839798 1.57263 -1.30356 0.845045
241 1 0 10.0776 0 0 10.0776 0 -1.33735 -0.910389 -1.38655
243 1 0.839798 10.0776 0.839798 0.839798 10.0776 0.839798 -0.394848 0.591041 1.75617
206 1 2.51939 9.23778 0 2.51939 9.23778 0 -0.456603 2.89101 -0.1353
208 1 1.6796 9.23778 0.839798 1.6796 9.23778 0.839798 1.44244 -0.0775076 2.26218
245 1 1.6796 10.0776 0 1.6796 10.0776 0 1.99431 -2.20338 -2.98703
247 1 2.51939 10.0776 0.839798 2.51939 10.0776 0.839798 -2.69601 0.534199 1.96541
210 1 4.19899 9.23778 0 4.19899 9.23778 0 2.38144 2.98393 1.2491
212 1 3.35919 9.23778 0.839798 3.35919 9.23778 0.839798 -2.83135 -0.0953463 -1.21247
249 1 3.35919 10.0776 0 3.35919 10.0776 0 2.47402 -1.4391 2.7581
251 1 4.19899 10.0776 0.839798 4.19899 10.0776 0.839798 -1.92994 0.0929086 -0.20653
214 1 5.87859 9.23778 0 5.87859 9.23778 0 -0.919087 1.33325 -0.513415
216 1 5.03879 9.23778 0.839798 5.03879 9.23778 0.839798 -0.190755 1.68235 0.413413
253 1 5.03879 10.0776 0 5.03879 10.0776 0 -1.64612 -1.37501 -2.62089
255 1 5.87859 10.0776 0.839798 5.87859 10.0776 0.839798 -0.908829 -1.63779 1.82741
218 1 7.55818 9.23778 0 7.55818 9.23778 0 0.263262 0.0330113 -2.96756
220 1 6.71838 9.23778 0.839798 6.71838 9.23778 0.839798 -0.428031 -0.72567 0.662721
257 1 6.71838 10.0776 0 6.71838 10.0776 0 1.98848 2.60505 1.70044
259 1 7.55818 10.0776 0.839798 7.55818 10.0776 0.839798 -1.34059 -0.843862 -2.11945
224 1 8.39798 9.23778 0.839798 8.39798 9.23778 0.839798 -2.70893 1.10205 2.38064
261 1 8.39798 10.0776 0 8.39798 10.0776 0 -2.11613 -2.37839 0.884095
222 1 9.23778 9.23778 0 9.23778 9.23778 0 -0.550553 2.34967 -2.50784
228 1 10.0776 9.23778 0.839798 10.0776 9.23778 0.839798 -1.45644 -0.613055 0.433879
263 1 9.23778 10.0776 0.839798 9.23778 10.0776 0.839798 -2.44515 1.39988 0.427729
265 1 10.0776 10.0776 0 10.0776 10.0776 0 1.76164 0.233149 -1.81591
226 1 10.9174 9.23778 0 10.9174 9.23778 0 -1.05713 -2.49902 -0.550094
232 1 11.7572 9.23778 0.839798 11.7572 9.23778 0.839798 -1.18061 2.61802 2.01917
267 1 10.9174 10.0776 0.839798 10.9174 10.0776 0.839798 -2.67755 2.41369 2.89893
269 1 11.7572 10.0776 0 11.7572 10.0776 0 -0.5136 0.505212 -1.38616
230 1 12.597 9.23778 0 12.597 9.23778 0 -1.18916 -2.00895 -0.957143
236 1 13.4368 9.23778 0.839798 13.4368 9.23778 0.839798 2.40131 -1.68513 -1.60961
271 1 12.597 10.0776 0.839798 12.597 10.0776 0.839798 2.88594 3.06801 -0.762642
273 1 13.4368 10.0776 0 13.4368 10.0776 0 -2.30016 1.13231 2.94744
234 1 14.2766 9.23778 0 14.2766 9.23778 0 2.0859 1.02502 1.95016
240 1 15.1164 9.23778 0.839798 15.1164 9.23778 0.839798 -0.00160717 -0.443757 -2.69466
275 1 14.2766 10.0776 0.839798 14.2766 10.0776 0.839798 -2.35084 2.02659 -1.60268
277 1 15.1164 10.0776 0 15.1164 10.0776 0 0.574271 1.87514 -0.870732
238 1 15.9562 9.23778 0 15.9562 9.23778 0 2.59855 -0.872697 -2.91333
279 1 15.9562 10.0776 0.839798 15.9562 10.0776 0.839798 1.84788 -1.81735 1.7284
242 1 0.839798 10.9174 0 0.839798 10.9174 0 0.927286 2.11722 -2.40896
244 1 0 10.9174 0.839798 0 10.9174 0.839798 -0.095083 0.932942 2.6957
281 1 0 11.7572 0 0 11.7572 0 -1.40254 -1.9113 1.28452
283 1 0.839798 11.7572 0.839798 0.839798 11.7572 0.839798 1.43997 0.656955 2.84089
246 1 2.51939 10.9174 0 2.51939 10.9174 0 -1.36365 -1.43112 -2.21462
248 1 1.6796 10.9174 0.839798 1.6796 10.9174 0.839798 -0.614973 2.20035 -2.35571
285 1 1.6796 11.7572 0 1.6796 11.7572 0 -0.230599 -2.71692 2.19216
287 1 2.51939 11.7572 0.839798 2.51939 11.7572 0.839798 -0.17298 -1.95795 -2.5937
250 1 4.19899 10.9174 0 4.19899 10.9174 0 0.278007 -0.105952 1.96622
252 1 3.35919 10.9174 0.839798 3.35919 10.9174 0.839798 -0.127623 -1.66015 1.04352
289 1 3.35919 11.7572 0 3.35919 11.7572 0 -2.74542 -1.32983 0.721097
291 1 4.19899 11.7572 0.839798 4.19899 11.7572 0.839798 -1.11034 -1.69584 -0.179796
254 1 5.87859 10.9174 0 5.87859 10.9174 0 1.63583 2.47561 -2.58087
256 1 5.03879 10.9174 0.839798 5.03879 10.9174 0.839798 2.27078 -0.172713 -1.24592
293 1 5.03879 11.7572 0 5.03879 11.7572 0 -2.07885 1.15229 0.156946
295 1 5.87859 11.7572 0.839798 5.87859 11.7572 0.839798 -0.967836 -1.53391 -0.0929857
258 1 7.55818 10.9174 0 7.55818 10.9174 0 1.70384 2.48357 -1.89994
260 1 6.71838 10.9174 0.839798 6.71838 10.9174 0.839798 -2.94642 1.13363 1.0749
297 1 6.71838 11.7572 0 6.71838 11.7572 0 1.05952 -0.987823 -2.54849
299 1 7.55818 11.7572 0.839798 7.55818 11.7572 0.839798 -1.56979 -0.544936 2.26626
264 1 8.39798 10.9174 0.839798 8.39798 10.9174 0.839798 -2.88674 0.281039 -1.29334
301 1 8.39798 11.7572 0 8.39798 11.7572 0 1.51601 2.56849 -1.96307
262 1 9.23778 10.9174 0 9.23778 10.9174 0 -0.609477 -2.19642 -0.957052
268 1 10.0776 10.9174 0.839798 10.0776 10.9174 0.839798 0.969281 0.339958 -2.88392
303 1 9.23778 11.7572 0.839798 9.23778 11.7572 0.839798 -1.62604 -2.53529 0.736162
305 1 10.0776 11.7572 0 10.0776 11.7572 0 0.105425 2.25062 1.98265
266 1 10.9174 10.9174 0 10.9174 10.9174 0 -0.438296 2.14152 0.777856
272 1 11.7572 10.9174 0.839798 11.7572 10.9174 0.839798 2.23635 1.65825 0.583113
307 1 10.9174 11.7572 0.839798 10.9174 11.7572 0.839798 -1.54974 -2.25678 0.725531
309 1 11.7572 11.7572 0 11.7572 11.7572 0 2.60628 1.95732 1.34671
270 1 12.597 10.9174 0 12.597 10.9174 0 3.07822 -0.752185 2.55689
276 1 13.4368 10.9174 0.839798 13.4368 10.9174 0.839798 2.67118 -1.83823 1.6191
311 1 12.597 11.7572 0.839798 12.597 11.7572 0.839798 -1.96351 -1.65518 -0.170286
313 1 13.4368 11.7572 0 13.4368 11.7572 0 1.91903 2.66822 -1.04557
274 1 14.2766 10.9174 0 14.2766 10.9174 0 -2.82774 0.141472 -0.458469
280 1 15.1164 10.9174 0.839798 15.1164 10.9174 0.839798 2.87714 0.409505 -1.22472
315 1 14.2766 11.7572 0.839798 14.2766 11.7572 0.839798 -1.53713 -2.07478 -0.634153
317 1 15.1164 11.7572 0 15.1164 11.7572 0 -2.18034 1.02258 -2.67462
278 1 15.9562 10.9174 0 15.9562 10.9174 0 0.69933 -0.880241 -2.71006
319 1 15.9562 11.7572 0.839798 15.9562 11.7572 0.839798 0.903834 1.06687 -2.16257
282 1 0.839798 12.597 0 0.839798 12.597 0 -0.241687 -1.59613 0.460432
284 1 0 12.597 0.839798 0 12.597 0.839798 1.5543 -0.966856 -0.921155
321 1 0 13.4368 0 0 13.4368 0 2.23532 2.60525 -0.970478
323 1 0.839798 13.4368 0.839798 0.839798 13.4368 0.839798 -0.994284 1.49651 -2.27401
286 1 2.51939 12.597 0 2.51939 12.597 0 0.338596 2.19424 -2.29087
288 1 1.6796 12.597 0.839798 1.6796 12.597 0.839798 1.65964 -2.50645 1.57302
325 1 1.6796 13.4368 0 1.6796 13.4368 0 0.873971 1.12878 -1.84729
327 1 2.51939 13.4368 0.839798 2.51939 13.4368 0.839798 -0.171094 -0.507444 -2.61742
290 1 4.19899 12.597 0 4.19899 12.597 0 -1.85004 0.499944 0.78807
292 1 3.35919 12.597 0.839798 3.35919 12.597 0.839798 2.82479 -2.50055 -2.10067
329 1 3.35919 13.4368 0 3.35919 13.4368 0 0.893024 0.823919 2.82511
331 1 4.19899 13.4368 0.839798 4.19899 13.4368 0.839798 -1.33486 -1.38784 -0.452167
294 1 5.87859 12.597 0 5.87859 12.597 0 -2.93975 -1.63247 0.497684
296 1 5.03879 12.597 0.839798 5.03879 12.597 0.839798 1.36868 -0.0768169 1.77436
333 1 5.03879 13.4368 0 5.03879 13.4368 0 -2.03111 -0.704857 -0.295652
335 1 5.87859 13.4368 0.839798 5.87859 13.4368 0.839798 -1.19042 1.04406 1.50827
298 1 7.55818 12.597 0 7.55818 12.597 0 -0.166845 -1.65468 2.12295
300 1 6.71838 12.597 0.839798 6.71838 12.597 0.839798 1.55431 -0.759777 1.96862
337 1 6.71838 13.4368 0 6.71838 13.4368 0 1.52537 2.61514 1.93972
339 1 7.55818 13.4368 0.839798 7.55818 13.4368 0.839798 -0.101872 1.74309 -0.764332
304 1 8.39798 12.597 0.839798 8.39798 12.597 0.839798 -2.7799 -0.210796 -0.231075
341 1 8.39798 13.4368 0 8.39798 13.4368 0 -1.0324 1.88491 0.0491913
302 1 9.23778 12.597 0 9.23778 12.597 0 -2.06376 0.865265 2.23377
308 1 10.0776 12.597 0.839798 10.0776 12.597 0.839798 -1.76046 0.154607 2.59143
343 1 9.23778 13.4368 0.839798 9.23778 13.4368 0.839798 -1.82395 -2.60942 0.653792
345 1 10.0776 13.4368 0 10.0776 13.4368 0 -0.662322 -1.33697 1.68863
306 1 10.9174 12.597 0 10.9174 12.597 0 1.34204 -0.247616 -2.19213
312 1 11.7572 12.597 0.839798 11.7572 12.597 0.839798 0.101143 2.85397 0.261788
347 1 10.9174 13.4368 0.839798 10.9174 13.4368 0.839798 2.15454 -0.404996 1.64897
349 1 11.7572 13.4368 0 11.7572 13.4368 0 -1.87709 -0.525147 2.24438
310 1 12.597 12.597 0 12.597 12.597 0 0.0555358 -1.64111 0.395733
316 1 13.4368 12.597 0.839798 13.4368 12.597 0.839798 -2.32794 -0.105195 2.60633
351 1 12.597 13.4368 0.839798 12.597 13.4368 0.839798 -2.16485 1.18501 -0.231053
353 1 13.4368 13.4368 0 13.4368 13.4368 0 -2.33057 -1.97107 0.626797
314 1 14.2766 12.597 0 14.2766 12.597 0 -0.812206 1.49943 -1.63845
320 1 15.1164 12.597 0.839798 15.1164 12.597 0.839798 -0.0538109 -0.90158 1.51719
355 1 14.2766 13.4368 0.839798 14.2766 13.4368 0.839798 -1.44026 -0.86773 1.93774
357 1 15.1164 13.4368 0 15.1164 13.4368 0 -1.00774 -0.855557 0.899284
318 1 15.9562 12.597 0 15.9562 12.597 0 0.329816 -0.228084 -0.493717
359 1 15.9562 13.4368 0.839798 15.9562 13.4368 0.839798 -1.7629 1.51722 0.980758
322 1 0.839798 14.2766 0 0.839798 14.2766 0 1.50071 -0.546823 0.802642
324 1 0 14.2766 0.839798 0 14.2766 0.839798 2.63737 -1.72294 -1.9622
361 1 0 15.1164 0 0 15.1164 0 0.325821 -0.847575 2.01312
363 1 0.839798 15.1164 0.839798 0.839798 15.1164 0.839798 0.609472 0.809386 0.4876
326 1 2.51939 14.2766 0 2.51939 14.2766 0 0.0702165 -2.86114 -2.6722
328 1 1.6796 14.2766 0.839798 1.6796 14.2766 0.839798 -2.65386 1.35987 -0.580413
365 1 1.6796 15.1164 0 1.6796 15.1164 0 0.939781 0.452932 2.91717
367 1 2.51939 15.1164 0.839798 2.51939 15.1164 0.839798 -2.61992 -2.68443 -2.09408
330 1 4.19899 14.2766 0 4.19899 14.2766 0 1.43086 -1.15704 1.89143
332 1 3.35919 14.2766 0.839798 3.35919 14.2766 0.839798 3.04513 -0.560796 1.8082
369 1 3.35919 15.1164 0 3.35919 15.1164 0 2.12461 -1.49231 -2.49598
371 1 4.19899 15.1164 0.839798 4.19899 15.1164 0.839798 -0.909924 -1.90633 0.14115
334 1 5.87859 14.2766 0 5.87859 14.2766 0 0.66036 -2.69911 -0.924027
336 1 5.03879 14.2766 0.839798 5.03879 14.2766 0.839798 1.43879 -0.986112 2.01724
373 1 5.03879 15.1164 0 5.03879 15.1164 0 -2.76803 -0.271077 2.65753
375 1 5.87859 15.1164 0.839798 5.87859 15.1164 0.839798 0.631916 3.078 -2.2615
338 1 7.55818 14.2766 0 7.55818 14.2766 0 -1.67884 -0.960697 -0.219969
340 1 6.71838 14.2766 0.839798 6.71838 14.2766 0.839798 2.54533 -0.243368 2.66837
377 1 6.71838 15.1164 0 6.71838 15.1164 0 2.72993 -0.288881 -0.24605
379 1 7.55818 15.1164 0.839798 7.55818 15.1164 0.839798 -1.32545 -0.464451 0.272207
344 1 8.39798 14.2766 0.839798 8.39798 14.2766 0.839798 -1.50742 1.3996 1.91373
381 1 8.39798 15.1164 0 8.39798 15.1164 0 0.71178 2.7342 1.24938
342 1 9.23778 14.2766 0 9.23778 14.2766 0 -0.479782 0.384711 -0.642216
348 1 10.0776 14.2766 0.839798 10.0776 14.2766 0.839798 1.79034 -1.22324 2.10391
383 1 9.23778 15.1164 0.839798 9.23778 15.1164 0.839798 1.23749 2.53936 -1.64743
385 1 10.0776 15.1164 0 10.0776 15.1164 0 -1.91108 2.6366 -0.194783
346 1 10.9174 14.2766 0 10.9174 14.2766 0 -0.810588 -1.55903 1.04255
352 1 11.7572 14.2766 0.839798 11.7572 14.2766 0.839798 -2.27721 -0.261665 -2.45324
387 1 10.9174 15.1164 0.839798 10.9174 15.1164 0.839798 3.00686 -2.68327 -0.807137
389 1 11.7572 15.1164 0 11.7572 15.1164 0 0.0709785 -2.14985 1.59445
350 1 12.597 14.2766 0 12.597 14.2766 0 -1.11633 0.412992 2.94887
356 1 13.4368 14.2766 0.839798 13.4368 14.2766 0.839798 -1.50827 -0.900347 -1.95571
391 1 12.597 15.1164 0.839798 12.597 15.1164 0.839798 -0.47211 2.33018 2.5402
393 1 13.4368 15.1164 0 13.4368 15.1164 0 2.81267 -0.669708 -2.23005
354 1 14.2766 14.2766 0 14.2766 14.2766 0 -2.47604 2.48722 -1.0639
360 1 15.1164 14.2766 0.839798 15.1164 14.2766 0.839798 2.42274 1.60631 -1.5365
395 1 14.2766 15.1164 0.839798 14.2766 15.1164 0.839798 0.181944 0.129197 -1.13779
397 1 15.1164 15.1164 0 15.1164 15.1164 0 2.28646 -2.73033 0.567065
358 1 15.9562 14.2766 0 15.9562 14.2766 0 0.707114 2.942 -1.9175
399 1 15.9562 15.1164 0.839798 15.9562 15.1164 0.839798 2.86139 1.6848 -0.750164
362 1 0.839798 15.9562 0 0.839798 15.9562 0 2.67932 1.78511 -2.08778
364 1 0 15.9562 0.839798 0 15.9562 0.839798 -0.103614 2.69503 2.06262
366 1 2.51939 15.9562 0 2.51939 15.9562 0 2.34153 -2.56135 -1.76761
368 1 1.6796 15.9562 0.839798 1.6796 15.9562 0.839798 2.41425 -1.92596 2.7806
370 1 4.19899 15.9562 0 4.19899 15.9562 0 0.797976 -0.0313013 -1.31353
372 1 3.35919 15.9562 0.839798 3.35919 15.9562 0.839798 -2.38753 2.2192 -0.0600874
374 1 5.87859 15.9562 0 5.87859 15.9562 0 2.48732 -1.59134 2.41013
376 1 5.03879 15.9562 0.839798 5.03879 15.9562 0.839798 1.40535 -0.647133 2.21816
378 1 7.55818 15.9562 0 7.55818 15.9562 0 3.02333 2.00373 1.12753
380 1 6.71838 15.9562 0.839798 6.71838 15.9562 0.839798 0.65274 2.2859 2.23291
384 1 8.39798 15.9562 0.839798 8.39798 15.9562 0.839798 1.23256 -1.77161 2.55736
382 1 9.23778 15.9562 0 9.23778 15.9562 0 2.72961 0.330469 0.928149
388 1 10.0776 15.9562 0.839798 10.0776 15.9562 0.839798 -1.74141 -0.231905 1.80459
386 1 10.9174 15.9562 0 10.9174 15.9562 0 -0.0345226 2.74376 -1.37507
392 1 11.7572 15.9562 0.839798 11.7572 15.9562 0.839798 1.49548 2.25063 2.11025
390 1 12.597 15.9562 0 12.597 15.9562 0 -0.920764 -2.65413 -0.810387
396 1 13.4368 15.9562 0.839798 13.4368 15.9562 0.839798 2.22841 1.36279 -0.00184037
394 1 14.2766 15.9562 0 14.2766 15.9562 0 -1.98434 -0.985013 2.34262
400 1 15.1164 15.9562 0.839798 15.1164 15.9562 0.839798 -0.230884 -1.4538 -2.40652
398 1 15.9562 15.9562 0 15.9562 15.9562 0 -1.69978 -2.1771 -2.74584
401 1 0 0 1.6796 0 0 1.6796 0.799406 -0.203055 2.87228
402 1 0.839798 0.839798 1.6796 0.839798 0.839798 1.6796 0.860063 -2.80848 -0.548006
403 1 0.839798 0 2.51939 0.839798 0 2.51939 -2.53341 -0.256452 0.497341
404 1 0 0.839798 2.51939 0 0.839798 2.51939 -2.26494 0.343632 -1.60769