ITEM: TIMESTEP
250
ITEM: NUMBER OF ATOMS
4000
ITEM: BOX BOUNDS pp pp pp
0.0000000000000000e+00 1.6795961913825074e+01
0.0000000000000000e+00 1.6795961913825074e+01
0.0000000000000000e+00 1.6795961913825074e+01
ITEM: ATOMS id type x y z xu yu zu vx vy vz
1 1 16.1275 16.5675 16.1534 -0.668434 -0.228443 -0.642607 -0.739083 -0.126951 1.42221
2 1 0.280821 0.774442 0.401072 0.280821 0.774442 0.401072 -2.69814 -0.106878 1.38155
3 1 0.954308 16.4176 0.556264 0.954308 -0.37832 0.556264 -0.769071 1.77899 2.26023
4 1 16.2212 0.784738 1.03312 -0.574756 0.784738 1.03312 -0.818853 -0.800452 -0.82701
5 1 1.40866 16.2412 16.1753 1.40866 -0.554737 -0.620684 -0.534383 -0.123991 -1.47339
6 1 2.4744 0.891132 16.3297 2.4744 0.891132 -0.466281 1.85112 1.72263 0.0722754
7 1 2.93837 0.257153 0.291325 2.93837 0.257153 0.291325 -1.43499 0.514549 -2.57075
8 1 1.55472 0.441393 -0.0157976 1.55472 0.441393 -0.0157976 -0.696028 -0.732418 -0.836313
9 1 4.1005 0.449817 0.00740496 4.1005 0.449817 0.00740496 0.47801 2.34628 -0.99362
10 1 4.14378 1.4421 16.3396 4.14378 1.4421 -0.456328 -0.175702 -0.81581 -0.552325
11 1 4.96749 1.04284 0.215027 4.96749 1.04284 0.215027 -1.26437 1.01384 -0.717791
12 1 3.24214 1.32428 1.35999 3.24214 1.32428 1.35999 2.40831 -2.33761 2.22362
13 1 5.83209 0.173967 16.6187 5.83209 0.173967 -0.177276 1.15166 -2.57378 -1.6347
14 1 6.65045 1.03283 0.512564 6.65045 1.03283 0.512564 1.15064 -0.449124 3.06678
15 1 5.08366 0.119057 0.616367 5.08366 0.119057 0.616367 0.258382 -0.29518 -1.35971
16 1 5.90764 1.3403 16.6631 5.90764 1.3403 -0.132905 -0.67849 1.31209 -1.95084
17 1 6.38532 0.118303 1.10638 6.38532 0.118303 1.10638 -0.377951 1.58083 -1.4786
18 1 7.58507 0.752672 0.619871 7.58507 0.752672 0.619871 0.718348 2.28339 1.71193
19 1 8.46447 0.245779 1.29257 8.46447 0.245779 1.29257 3.05602 1.53145 2.14765
20 1 7.07718 1.41123 1.44315 7.07718 1.41123 1.44315 -0.257885 1.72683 -0.0302174
21 1 9.11418 16.7244 0.596906 9.11418 -0.0715541 0.596906 0.595478 -0.509374 1.74748
24 1 8.47659 1.12723 1.77266 8.47659 1.12723 1.77266 0.898031 0.468037 -1.92471
22 1 8.57036 0.994189 0.359458 8.57036 0.994189 0.359458 -0.360186 -0.270425 -0.616365
23 1 9.51132 0.764393 0.871276 9.51132 0.764393 0.871276 -0.0159846 2.25933 0.303715
25 1 10.4028 0.168781 0.258904 10.4028 0.168781 0.258904 1.3478 0.262944 1.33384
28 1 9.98962 1.89906 1.17154 9.98962 1.89906 1.17154 -0.431066 0.528322 0.0632611
26 1 11.0354 1.02018 0.28898 11.0354 1.02018 0.28898 -0.600001 -0.257122 1.66213
27 1 10.4939 0.546453 1.16887 10.4939 0.546453 1.16887 -1.23163 1.02329 0.7193
29 1 12.0676 0.385935 0.272888 12.0676 0.385935 0.272888 0.0534554 -1.11196 -1.78668
32 1 11.3822 0.98186 1.25007 11.3822 0.98186 1.25007 0.667074 -0.114772 -1.69577
30 1 13.0343 0.791679 16.7074 13.0343 0.791679 -0.0885398 -0.0224836 1.41166 2.13738
31 1 12.8606 0.0559592 1.3063 12.8606 0.0559592 1.3063 0.906375 -0.0335302 0.912831
33 1 13.0184 15.7199 -0.0853374 13.0184 -1.07605 -0.0853374 -0.759927 -2.19662 -2.45877
36 1 13.7432 0.634261 1.47805 13.7432 0.634261 1.47805 -0.0611673 1.14926 -0.529361
34 1 14.0549 0.522577 16.4929 14.0549 0.522577 -0.303105 0.400873 0.526095 0.777983
35 1 14.3113 16.8171 0.675008 14.3113 0.021165 0.675008 2.46995 2.25388 1.17412
37 1 15.2039 0.192688 16.4065 15.2039 0.192688 -0.389437 -1.80002 -0.679816 -1.05139
40 1 15.6277 16.7994 0.586001 15.6277 0.00340653 0.586001 1.10872 0.746227 -1.56254
38 1 16.1047 0.771172 16.4643 16.1047 0.771172 -0.331658 0.781419 0.235383 -0.859756
39 1 16.6384 16.7123 0.689267 16.6384 -0.0836244 0.689267 -2.30706 -1.49003 -1.07438
41 1 0.458359 1.82734 16.7679 0.458359 1.82734 -0.0280375 -0.386891 -0.2131 0.600673
42 1 1.75358 2.58984 0.844722 1.75358 2.58984 0.844722 1.39031 -1.08643 0.00342652
43 1 1.20286 1.35833 0.751932 1.20286 1.35833 0.751932 -0.683421 -1.55967 3.22701
44 1 0.128799 2.33858 0.696263 0.128799 2.33858 0.696263 0.755317 -1.58971 -2.22016
45 1 1.98887 1.57212 0.121821 1.98887 1.57212 0.121821 -0.526012 -1.45065 1.26789
46 1 2.96285 2.32927 16.3815 2.96285 2.32927 -0.414504 0.818648 -1.29271 -2.49731
47 1 2.32759 0.795022 0.804556 2.32759 0.795022 0.804556 1.96775 0.332494 -0.574861
48 1 2.09213 1.67404 1.24436 2.09213 1.67404 1.24436 -2.46689 0.690859 -0.909389
49 1 3.24111 1.38751 16.8545 3.24111 1.38751 0.0585732 0.321369 2.38939 1.77942
50 1 3.86473 2.07596 0.567164 3.86473 2.07596 0.567164 -0.0128339 -1.09076 1.58762
51 1 5.25916 1.99602 0.783827 5.25916 1.99602 0.783827 0.528645 0.77816 -0.0510842
52 1 2.84953 2.2511 0.596534 2.84953 2.2511 0.596534 0.165217 1.73774 -1.8693
53 1 4.59107 2.42255 0.0368977 4.59107 2.42255 0.0368977 0.273421 1.00208 -0.0249228
54 1 6.34508 2.11835 0.500885 6.34508 2.11835 0.500885 -0.393773 -0.434323 1.6304
55 1 6.02547 1.59782 1.69834 6.02547 1.59782 1.69834 1.54693 -1.36595 -0.55902
56 1 5.91878 2.86707 1.20457 5.91878 2.86707 1.20457 -0.0464146 1.00225 1.3946
57 1 6.95174 1.18194 16.2442 6.95174 1.18194 -0.551786 1.18189 0.234885 0.87385
58 1 7.84583 2.87258 16.5687 7.84583 2.87258 -0.227308 1.10614 -0.994247 -1.26701
59 1 7.94722 2.45187 1.60637 7.94722 2.45187 1.60637 0.691333 -0.303647 -0.502573
60 1 7.09575 2.79886 1.14613 7.09575 2.79886 1.14613 0.888002 0.637353 1.35735
61 1 7.65226 1.96521 0.600188 7.65226 1.96521 0.600188 -0.717849 -0.409983 1.38981
64 1 8.52678 2.98205 0.514443 8.52678 2.98205 0.514443 2.00519 0.720656 -2.59499
62 1 8.74134 1.94281 0.0832618 8.74134 1.94281 0.0832618 -0.013588 0.39549 1.19914
63 1 8.96317 2.19574 1.11298 8.96317 2.19574 1.11298 0.468648 3.69983 1.02178
65 1 9.77839 1.94292 16.5884 9.77839 1.94292 -0.207572 -0.0181938 1.5564 0.0427791
68 1 9.06758 3.84324 0.716528 9.06758 3.84324 0.716528 -1.62718 0.756867 1.69691
66 1 10.3624 2.6899 0.575519 10.3624 2.6899 0.575519 1.36276 0.13682 0.285072
67 1 11.0258 1.93463 0.635392 11.0258 1.93463 0.635392 -0.635898 -0.494989 -0.60494
69 1 12.0671 2.01876 16.6535 12.0671 2.01876 -0.142498 -1.23424 -0.814875 0.431812
72 1 12.0048 2.23793 0.842744 12.0048 2.23793 0.842744 -0.404928 -0.23564 -0.816097
70 1 13.2136 1.8768 0.065006 13.2136 1.8768 0.065006 -0.00282904 -1.00198 -0.634722
71 1 12.3926 1.23306 0.888766 12.3926 1.23306 0.888766 -2.69784 -0.52681 0.0256429
73 1 13.991 1.42773 0.371775 13.991 1.42773 0.371775 0.166674 1.36112 2.04732
76 1 13.7612 2.58636 0.729086 13.7612 2.58636 0.729086 2.98749 -0.514764 -1.44833
74 1 15.1285 1.84955 0.686024 15.1285 1.84955 0.686024 0.649401 -0.691677 -1.06075
75 1 14.9731 0.838235 0.955658 14.9731 0.838235 0.955658 -2.00665 -1.77735 2.48107
77 1 14.9169 1.15563 16.6341 14.9169 1.15563 -0.161881 -0.602333 3.45006 1.4573
80 1 15.9267 2.42936 1.21082 15.9267 2.42936 1.21082 -2.74016 0.293726 0.141572
78 1 16.2885 2.33481 16.5638 16.2885 2.33481 -0.232117 2.29052 -0.288861 0.0799544
79 1 16.0254 1.5986 0.328777 16.0254 1.5986 0.328777 -0.272704 1.08706 -1.18847
81 1 0.384383 2.74787 16.5426 0.384383 2.74787 -0.253323 -0.0678 0.789921 0.834206
82 1 1.08064 4.90924 0.532863 1.08064 4.90924 0.532863 -0.0757195 0.0333741 1.77418
83 1 0.155178 4.06896 0.467754 0.155178 4.06896 0.467754 1.34584 -0.355538 0.151119
84 1 0.515608 4.11974 1.3838 0.515608 4.11974 1.3838 1.07165 -2.29854 -0.728789
85 1 1.65618 3.67733 0.289068 1.65618 3.67733 0.289068 -0.477075 1.55332 -0.320938
86 1 2.81273 4.21667 16.2959 2.81273 4.21667 -0.5001 0.942391 -0.663968 -0.152664
87 1 2.73596 3.34747 0.0749357 2.73596 3.34747 0.0749357 2.361 -3.08154 -0.863886
88 1 2.51104 4.302 0.472659 2.51104 4.302 0.472659 -1.80052 -0.0494414 0.271099
89 1 3.73839 3.07839 16.6133 3.73839 3.07839 -0.182672 -1.30637 -2.69562 0.645215
90 1 4.50283 3.74446 -0.0383738 4.50283 3.74446 -0.0383738 -0.135638 0.788449 0.473879
91 1 4.36706 2.93278 0.950326 4.36706 2.93278 0.950326 1.86619 -0.068974 -1.11567
92 1 3.49118 3.77566 0.786613 3.49118 3.77566 0.786613 -1.55168 1.97382 -1.52702
93 1 5.4127 2.80437 0.301411 5.4127 2.80437 0.301411 0.472873 -1.68843 0.484977
94 1 5.108 4.33099 16.1466 5.108 4.33099 -0.64939 2.31693 -0.93253 0.0655963
95 1 6.31055 3.19247 0.18168 6.31055 3.19247 0.18168 1.72263 -0.397817 -2.78856
96 1 5.54152 3.855 0.581454 5.54152 3.855 0.581454 0.311929 -1.48554 0.799249
97 1 6.97391 3.32616 16.1453 6.97391 3.32616 -0.650617 -0.524679 -0.267011 1.05564
98 1 7.46456 4.367 16.1411 7.46456 4.367 -0.654886 -0.822312 1.11784 -1.2964
99 1 7.62675 3.83219 0.224515 7.62675 3.83219 0.224515 0.0279554 1.92118 0.480548
100 1 7.02406 4.61204 0.491447 7.02406 4.61204 0.491447 0.372016 0.833826 -0.959175
101 1 8.47717 3.83966 16.1528 8.47717 3.83966 -0.643124 0.0164399 -0.331988 0.046341
104 1 8.05056 4.79762 0.431174 8.05056 4.79762 0.431174 0.666034 0.970157 -0.691314
102 1 9.29723 4.3896 16.566 9.29723 4.3896 -0.229913 1.44014 0.189973 -0.842798
103 1 7.86866 3.71623 1.25901 7.86866 3.71623 1.25901 -2.9368 1.19919 -0.767405
105 1 10.3702 3.90614 0.244082 10.3702 3.90614 0.244082 -0.59573 -1.09425 0.0309185
108 1 9.22186 4.88611 0.745522 9.22186 4.88611 0.745522 1.47733 -0.121883 -0.765012
106 1 11.3866 3.64621 1.34426 11.3866 3.64621 1.34426 -0.450166 0.079994 0.219948
107 1 11.2482 3.05364 0.363788 11.2482 3.05364 0.363788 -2.41575 2.53025 -0.338691
109 1 12.8246 3.03649 0.678824 12.8246 3.03649 0.678824 -1.41764 -0.0971075 1.07861
112 1 12.3172 3.90697 1.64648 12.3172 3.90697 1.64648 -1.73967 0.347484 -1.68013
110 1 12.0808 3.66944 0.611218 12.0808 3.66944 0.611218 -0.018915 -0.427911 -0.0153736
111 1 12.73 3.00336 1.91212 12.73 3.00336 1.91212 -2.78785 -0.233695 -1.88406
113 1 13.2248 3.75193 1.24502 13.2248 3.75193 1.24502 1.16544 0.64255 1.90357
116 1 13.599 3.86192 2.35136 13.599 3.86192 2.35136 2.61937 0.621909 -1.25966
114 1 14.1328 3.38075 0.15017 14.1328 3.38075 0.15017 -0.474865 0.145479 -0.793722
115 1 14.7597 2.8008 1.0411 14.7597 2.8008 1.0411 0.273248 0.452137 2.15039
117 1 15.0028 2.86858 0.0350397 15.0028 2.86858 0.0350397 -1.45276 -0.449982 -0.484131
120 1 15.0225 3.89956 0.0197011 15.0225 3.89956 0.0197011 -0.91828 1.25808 -1.16349
118 1 16.3633 3.93432 16.4042 16.3633 3.93432 -0.391746 1.10725 -1.5865 2.45271
119 1 16.0898 3.23451 0.525787 16.0898 3.23451 0.525787 -0.367441 -1.344 -0.94963
121 1 0.0963843 4.94292 16.759 0.0963843 4.94292 -0.0369855 -1.12836 0.348354 1.44626
122 1 0.655545 5.98849 0.240448 0.655545 5.98849 0.240448 -0.906593 1.90887 0.446558
123 1 0.656366 5.09408 1.65056 0.656366 5.09408 1.65056 1.83267 -0.0568858 0.977382
124 1 16.3271 5.05149 1.3435 -0.468831 5.05149 1.3435 -0.902836 -0.391221 0.322965
125 1 2.01561 5.27774 0.354075 2.01561 5.27774 0.354075 -1.07598 1.99232 1.22848
126 1 3.25994 5.892 0.382341 3.25994 5.892 0.382341 1.25757 1.14258 0.523442
127 1 3.09435 5.14589 1.08142 3.09435 5.14589 1.08142 1.04659 -0.845075 1.84088
128 1 1.4077 5.61892 1.30449 1.4077 5.61892 1.30449 -0.501026 -0.902491 -1.13901
129 1 3.29403 5.17953 16.482 3.29403 5.17953 -0.313945 -0.55747 0.618288 -0.463007
130 1 4.14642 6.05933 16.6879 4.14642 6.05933 -0.108108 1.13407 0.666862 0.00336255
131 1 4.03216 5.27832 0.750992 4.03216 5.27832 0.750992 -0.608314 0.811376 -2.60865
132 1 3.56354 6.06933 1.44868 3.56354 6.06933 1.44868 0.583629 -0.173539 -1.03262
133 1 4.92842 4.86636 0.371509 4.92842 4.86636 0.371509 0.199432 -0.546088 0.813552
134 1 5.44216 6.69823 16.6166 5.44216 6.69823 -0.179397 -1.08866 0.927426 0.0226472
135 1 5.74425 5.91228 0.726 5.74425 5.91228 0.726 -0.367693 2.57113 -3.23689
136 1 4.62298 5.93929 1.27762 4.62298 5.93929 1.27762 0.981702 -1.83545 -0.792189
137 1 6.08206 5.01733 0.30818 6.08206 5.01733 0.30818 1.75232 1.31364 1.24458
138 1 7.50359 5.63642 0.158225 7.50359 5.63642 0.158225 -0.0161495 1.1744 1.77799
139 1 8.20827 5.84151 0.951897 8.20827 5.84151 0.951897 -2.37339 1.54164 -0.00238101
140 1 6.37626 6.01038 16.7428 6.37626 6.01038 -0.0531571 -0.505166 0.0249171 -0.850371
141 1 8.5631 5.72229 0.0822716 8.5631 5.72229 0.0822716 -1.28942 -0.368424 -1.51484
144 1 8.16448 6.34572 16.2968 8.16448 6.34572 -0.499185 0.651448 -0.0022077 -1.68167
142 1 9.74874 6.51688 16.6126 9.74874 6.51688 -0.183352 -1.02406 3.01867 0.0930787
143 1 9.37343 5.89793 0.72142 9.37343 5.89793 0.72142 3.82215 0.459755 -1.36339
145 1 10.0007 4.15451 15.6417 10.0007 4.15451 -1.15429 -0.768683 -1.98351 -0.919247
148 1 10.4003 6.20833 0.778426 10.4003 6.20833 0.778426 -0.204463 0.905834 -1.60849
146 1 11.2943 5.80285 0.767289 11.2943 5.80285 0.767289 1.09344 -0.728345 1.31575
147 1 9.87025 5.39761 16.6537 9.87025 5.39761 -0.142213 0.684632 2.63503 -0.362831
149 1 11.7007 4.76221 0.813128 11.7007 4.76221 0.813128 2.28526 1.35034 0.234356
152 1 12.0631 6.02038 1.40417 12.0631 6.02038 1.40417 1.63629 -2.53951 -0.410278
150 1 11.9446 6.53781 0.432659 11.9446 6.53781 0.432659 0.423285 -0.440873 1.8556
151 1 12.6349 4.54175 0.182776 12.6349 4.54175 0.182776 -0.393963 -1.00452 0.75184
153 1 13.5593 4.45418 0.507923 13.5593 4.45418 0.507923 -0.234571 -0.115747 0.576405
156 1 13.5775 5.35649 0.932634 13.5775 5.35649 0.932634 0.135429 -0.556192 2.04114
154 1 14.1513 5.32109 0.0531633 14.1513 5.32109 0.0531633 -0.946734 -0.190923 1.32629
155 1 14.7038 4.56602 1.01815 14.7038 4.56602 1.01815 -1.79973 -1.48403 -1.92606
157 1 14.2216 4.40804 16.4912 14.2216 4.40804 -0.304771 -0.886889 -0.808623 0.259089
160 1 15.3384 5.38309 0.624941 15.3384 5.38309 0.624941 -0.0945268 0.840585 0.0715157
158 1 16.2656 5.69353 0.077072 16.2656 5.69353 0.077072 -1.1273 -2.94758 -0.306553
159 1 15.7263 4.73945 16.7863 15.7263 4.73945 -0.00963313 -1.01051 0.898885 1.11372
161 1 0.301924 6.802 0.613877 0.301924 6.802 0.613877 -0.28797 -1.6284 0.325207
162 1 1.44664 6.63569 0.877538 1.44664 6.63569 0.877538 1.09889 -1.56968 0.557206
163 1 0.515327 7.36522 1.38896 0.515327 7.36522 1.38896 -0.37135 0.0851746 1.88966
164 1 16.2672 7.4813 0.871535 -0.52876 7.4813 0.871535 -0.0897408 0.133929 0.922597
165 1 2.42895 6.68406 0.134974 2.42895 6.68406 0.134974 1.24558 0.28567 0.292287
166 1 1.94611 7.7938 16.2393 1.94611 7.7938 -0.556651 -1.73176 -0.700935 -0.817979
167 1 2.42243 6.05057 1.1433 2.42243 6.05057 1.1433 -1.95824 2.9532 -0.856799
168 1 1.82163 7.77962 0.470558 1.82163 7.77962 0.470558 1.4293 1.6063 1.98909
169 1 3.13801 6.8018 0.965596 3.13801 6.8018 0.965596 0.255834 -2.27888 -0.519549
170 1 3.39788 7.38149 0.017986 3.39788 7.38149 0.017986 -1.92539 0.465714 -0.446934
171 1 4.2587 6.99423 0.791144 4.2587 6.99423 0.791144 1.9175 -1.15749 -0.695907
172 1 2.48787 7.45246 1.35202 2.48787 7.45246 1.35202 -2.24735 -0.5427 -1.51013
173 1 4.57176 7.18153 16.6432 4.57176 7.18153 -0.152788 -0.766534 0.0319834 2.32472
174 1 5.4815 7.77429 16.7297 5.4815 7.77429 -0.0662641 -0.028515 1.74313 -0.377505
175 1 5.30001 7.30014 0.803674 5.30001 7.30014 0.803674 1.12547 -0.996965 -1.54324
176 1 4.4966 8.04834 0.629153 4.4966 8.04834 0.629153 0.600184 1.97482 0.118544
177 1 6.47146 6.87031 0.45391 6.47146 6.87031 0.45391 0.934269 -0.433366 -0.39015
178 1 7.46918 7.26988 0.119242 7.46918 7.26988 0.119242 -0.713338 1.03842 -1.22126
179 1 7.74248 6.95346 0.965714 7.74248 6.95346 0.965714 0.413394 2.61867 0.885552
180 1 6.62525 7.68915 0.984723 6.62525 7.68915 0.984723 1.49747 -1.21756 1.08315
181 1 7.94095 7.09329 15.7424 7.94095 7.09329 -1.05354 -0.0170709 0.445514 0.847183
184 1 9.47542 7.60576 0.220322 9.47542 7.60576 0.220322 1.33923 0.763341 0.862817
182 1 10.3682 7.89125 16.7275 10.3682 7.89125 -0.0684886 -0.15587 -1.71972 -0.0998689
183 1 8.59587 7.05014 16.7021 8.59587 7.05014 -0.093897 -1.6562 1.26871 -0.392712
185 1 10.8098 5.70041 16.4288 10.8098 5.70041 -0.367129 2.39322 0.181842 0.871819
188 1 11.2414 8.08755 1.35547 11.2414 8.08755 1.35547 0.363299 -3.57652 -1.99403
186 1 11.2416 8.3163 0.25349 11.2416 8.3163 0.25349 -0.350656 0.221193 -0.301585
187 1 11.2529 7.2913 0.271739 11.2529 7.2913 0.271739 0.286041 -1.54532 0.0886612
189 1 11.5079 6.54269 16.2829 11.5079 6.54269 -0.513088 -0.552596 -0.311135 -0.958718
192 1 12.3924 8.34061 0.672115 12.3924 8.34061 0.672115 1.5294 -0.159008 -2.31223
190 1 12.9989 6.87796 16.3334 12.9989 6.87796 -0.462561 1.55144 -0.949813 0.990461
191 1 13.4185 6.72298 1.46412 13.4185 6.72298 1.46412 1.11066 -0.276922 0.073127
193 1 12.9192 5.92588 16.3308 12.9192 5.92588 -0.465124 -0.986638 2.31443 -1.17313
196 1 13.0641 6.86862 0.578298 13.0641 6.86862 0.578298 -0.545062 -1.31527 -0.591795
194 1 13.7631 7.61623 16.3157 13.7631 7.61623 -0.480251 0.414493 -0.117618 -0.0151746
195 1 14.0055 6.2151 0.433883 14.0055 6.2151 0.433883 2.09509 -0.441096 1.61062
197 1 14.9928 6.33864 0.18883 14.9928 6.33864 0.18883 -2.37185 0.680721 1.02305
200 1 14.8589 7.18645 0.707473 14.8589 7.18645 0.707473 1.06277 -0.93196 -1.48402
198 1 16.0471 6.85774 16.6715 16.0471 6.85774 -0.124466 0.71376 0.368548 -0.670873
199 1 15.7127 6.55268 0.763866 15.7127 6.55268 0.763866 0.0670126 0.118058 2.26496
201 1 0.30724 7.7651 0.123716 0.30724 7.7651 0.123716 1.23488 0.524946 1.22918
203 1 0.840131 8.50532 0.817779 0.840131 8.50532 0.817779 -1.49712 0.0196232 -1.48469
205 1 1.98957 8.77955 16.6592 1.98957 8.77955 -0.136744 -0.384134 -1.60559 1.11687
207 1 2.61879 9.19548 0.664102 2.61879 9.19548 0.664102 0.50536 0.899211 -1.19597
209 1 2.83009 8.15517 0.380534 2.83009 8.15517 0.380534 0.609997 0.410539 0.0129325
211 1 3.60521 7.84347 0.907482 3.60521 7.84347 0.907482 -0.0673157 -1.27889 0.463503
213 1 5.68467 9.09217 0.130656 5.68467 9.09217 0.130656 0.507306 -0.94469 -0.355855
215 1 5.31875 8.57941 0.929175 5.31875 8.57941 0.929175 0.196791 -0.405845 -1.32432
217 1 7.23504 8.46728 0.356596 7.23504 8.46728 0.356596 -0.867316 -3.12735 -0.914962
219 1 8.42668 7.98575 0.504577 8.42668 7.98575 0.504577 0.410219 -1.69799 0.630173
221 1 9.09642 8.54585 16.4894 9.09642 8.54585 -0.306605 -1.16863 0.65684 0.459237
223 1 10.0573 8.45716 0.615695 10.0573 8.45716 0.615695 0.917685 -0.164124 -1.73674
225 1 10.0041 9.22555 16.4341 10.0041 9.22555 -0.361826 -0.193736 2.24575 -0.394355
227 1 10.9963 9.22182 0.921923 10.9963 9.22182 0.921923 1.14171 -0.302685 -0.0392691
229 1 12.0724 7.57984 0.012819 12.0724 7.57984 0.012819 0.619065 -3.61334 -0.767172
231 1 12.8306 9.39071 1.01334 12.8306 9.39071 1.01334 -0.990439 -0.44226 0.655073
233 1 12.9946 7.96979 -0.0420753 12.9946 7.96979 -0.0420753 0.629912 -0.735318 -0.782713
235 1 13.956 7.80056 0.58599 13.956 7.80056 0.58599 -0.833837 -1.68443 -0.360671
237 1 15.0847 8.21887 16.7884 15.0847 8.21887 -0.00760227 -0.102076 0.520924 0.830825
239 1 16.1203 8.14535 0.0556414 16.1203 8.14535 0.0556414 -0.846766 -3.004 -1.27791
202 1 0.183919 10.4309 0.244409 0.183919 10.4309 0.244409 -0.972864 1.07166 0.00107947
204 1 16.612 8.71938 0.733439 -0.183992 8.71938 0.733439 -1.71446 -0.688548 0.427054
241 1 16.5257 9.55087 16.5653 -0.270212 9.55087 -0.230664 1.62798 -1.01682 1.06848
243 1 16.1389 9.81516 0.873758 -0.657038 9.81516 0.873758 1.25923 0.29762 1.50097
206 1 2.77485 9.59567 16.2591 2.77485 9.59567 -0.53683 1.71451 0.175215 0.611516
208 1 1.23303 10.1426 0.865162 1.23303 10.1426 0.865162 0.0242746 0.606639 0.956225
245 1 1.68385 9.69508 16.1031 1.68385 9.69508 -0.69289 0.385015 -1.39126 0.72374
247 1 2.07159 10.1116 0.187749 2.07159 10.1116 0.187749 -1.42759 -3.26861 -0.272426
210 1 4.15614 9.41725 16.2169 4.15614 9.41725 -0.579111 2.93921 0.392481 -0.0551281
212 1 3.5234 9.6033 0.230493 3.5234 9.6033 0.230493 0.790697 0.565679 -0.616548
249 1 3.73133 10.408 16.5199 3.73133 10.408 -0.276059 -1.07831 -1.87479 -1.40208
251 1 4.68477 9.96866 0.158825 4.68477 9.96866 0.158825 0.193292 -0.71334 -0.597186
214 1 5.67144 9.79043 0.952298 5.67144 9.79043 0.952298 -0.966419 0.989645 0.6568
216 1 4.57834 9.42653 0.941601 4.57834 9.42653 0.941601 -0.710787 0.418537 1.02191
253 1 5.31456 9.64592 16.0054 5.31456 9.64592 -0.790589 -2.08333 -0.477165 -1.43342
255 1 5.10763 11.0938 0.504111 5.10763 11.0938 0.504111 0.28382 0.769687 0.79405
218 1 7.99725 9.42581 0.233608 7.99725 9.42581 0.233608 -0.766249 0.694268 -0.882507
220 1 6.35896 8.76249 0.969963 6.35896 8.76249 0.969963 -0.769923 -0.730646 -0.691618
257 1 7.15974 10.1482 16.6191 7.15974 10.1482 -0.176854 0.82764 -0.272359 0.680037
259 1 6.99002 9.535 0.815526 6.99002 9.535 0.815526 -1.11123 -0.935658 0.601769
224 1 8.94799 8.66849 0.933159 8.94799 8.66849 0.933159 -0.223504 -0.814144 1.66214
261 1 8.98379 10.1694 0.19534 8.98379 10.1694 0.19534 0.961203 0.651828 -0.946404
222 1 9.46165 10.1627 16.0183 9.46165 10.1627 -0.777705 1.1621 0.259998 0.687877
228 1 9.81411 9.76278 0.507875 9.81411 9.76278 0.507875 -1.11992 0.978156 -1.6244
263 1 9.43743 10.7047 1.26123 9.43743 10.7047 1.26123 -0.24357 2.97098 0.511821
265 1 10.4785 10.0158 16.5269 10.4785 10.0158 -0.269044 1.39662 -1.11074 0.382105
226 1 11.1651 9.09981 16.3416 11.1651 9.09981 -0.45437 -0.137895 -0.363996 -1.8488
232 1 11.8652 9.26748 0.500372 11.8652 9.26748 0.500372 1.2009 -0.301421 -0.555086
267 1 10.5898 10.3278 0.749622 10.5898 10.3278 0.749622 -1.23473 -0.354638 -0.788997
269 1 11.5483 10.1653 16.7405 11.5483 10.1653 -0.0554367 -0.0653785 -1.48186 -0.950489
230 1 12.7894 9.45928 -0.0220793 12.7894 9.45928 -0.0220793 -0.692162 0.550693 -1.30967
236 1 13.4986 8.65946 0.782177 13.4986 8.65946 0.782177 -0.860101 -0.235013 2.66485
271 1 12.8966 10.4826 1.35356 12.8966 10.4826 1.35356 1.63616 -0.634681 0.0659522
273 1 12.8173 10.4869 0.321156 12.8173 10.4869 0.321156 1.63061 -0.433894 -0.121357
234 1 14.3086 9.53134 0.302525 14.3086 9.53134 0.302525 -1.87711 -2.09455 0.665132
240 1 15.7042 9.03655 0.390786 15.7042 9.03655 0.390786 -1.20167 0.959016 0.684475
275 1 13.7591 10.1538 0.864717 13.7591 10.1538 0.864717 -0.42083 0.659107 0.051385
277 1 14.992 9.89329 0.889424 14.992 9.89329 0.889424 0.54839 -0.843842 0.855686
238 1 0.239828 8.63766 16.3706 17.0358 8.63766 -0.425396 3.7274 0.135449 -0.335468
279 1 15.9733 8.9886 1.65046 15.9733 8.9886 1.65046 1.79984 -0.028578 -1.73162
242 1 2.24017 11.3871 0.332568 2.24017 11.3871 0.332568 0.698117 1.67136 -1.9634
244 1 16.6009 10.8208 1.2185 -0.195059 10.8208 1.2185 0.31748 -2.89448 -1.34135
281 1 0.50724 11.9787 16.8183 0.50724 11.9787 0.0223769 2.3196 -0.446963 1.27566
283 1 1.55086 12.1819 0.106673 1.55086 12.1819 0.106673 0.193374 -0.578644 -2.2518
246 1 2.72323 10.6566 16.4029 2.72323 10.6566 -0.393088 -0.746468 0.237117 0.457976
248 1 1.3005 11.1546 0.659699 1.3005 11.1546 0.659699 1.3595 2.66826 0.000655894
285 1 2.47552 12.5055 16.7789 2.47552 12.5055 -0.0170868 -1.05151 -0.858037 0.755939
287 1 2.39758 12.0643 1.04768 2.39758 12.0643 1.04768 -0.127224 1.14079 -0.882771
250 1 4.6535 10.9857 16.4264 4.6535 10.9857 -0.36961 0.958242 -2.11921 0.352178
252 1 3.23057 11.4884 0.399648 3.23057 11.4884 0.399648 2.25271 -0.498891 2.10239
289 1 3.52552 12.384 16.7814 3.52552 12.384 -0.0146055 2.46785 -0.645311 0.201863
291 1 4.50432 12.1402 0.664119 4.50432 12.1402 0.664119 1.23173 1.20085 -1.24371
254 1 6.97993 11.3602 16.4746 6.97993 11.3602 -0.321328 0.904295 1.95398 -1.44591
256 1 5.37118 11.9964 0.0222194 5.37118 11.9964 0.0222194 1.17471 0.370617 -2.26209
293 1 5.42268 13.1518 16.2651 5.42268 13.1518 -0.530897 -0.207896 1.06475 -0.161662
295 1 6.43657 11.608 0.951719 6.43657 11.608 0.951719 1.02495 -0.974112 -0.708924
258 1 7.91641 12.036 16.612 7.91641 12.036 -0.183976 1.26119 1.3035 -0.816189
260 1 6.16606 10.6732 0.492515 6.16606 10.6732 0.492515 -0.0534952 -1.11845 -0.372349
297 1 6.68711 12.699 16.5871 6.68711 12.699 -0.208863 -0.7395 2.0932 1.19675
299 1 7.35131 11.5234 1.33098 7.35131 11.5234 1.33098 1.53655 -0.404185 0.798266
264 1 7.88062 10.6839 0.409748 7.88062 10.6839 0.409748 2.50379 0.698692 -1.81028
301 1 7.61737 12.883 0.143854 7.61737 12.883 0.143854 -1.63798 -0.0650595 1.22723
262 1 8.69926 11.3557 16.7447 8.69926 11.3557 -0.0513005 -0.471351 -1.48751 -0.20352
268 1 9.86355 10.7512 0.124843 9.86355 10.7512 0.124843 -0.397786 0.62449 0.786493
303 1 9.50273 11.9495 0.530209 9.50273 11.9495 0.530209 -1.32965 0.198058 1.35133
305 1 9.57794 12.9327 0.974965 9.57794 12.9327 0.974965 -1.23115 0.443019 -0.154263
266 1 10.5667 11.2772 16.1759 10.5667 11.2772 -0.620034 0.0652007 0.345086 0.237034
272 1 11.709 10.4046 1.26514 11.709 10.4046 1.26514 1.1352 1.19875 -1.54311
307 1 10.9355 11.2537 0.429568 10.9355 11.2537 0.429568 -0.642571 1.84476 -1.4379
309 1 11.853 11.0994 0.41183 11.853 11.0994 0.41183 0.543959 0.309842 2.1665
270 1 13.4899 11.1586 16.5554 13.4899 11.1586 -0.240536 -0.355415 1.92428 0.250292
276 1 13.3639 11.2361 0.983193 13.3639 11.2361 0.983193 0.103707 1.59524 -0.947958
311 1 12.3178 11.6332 1.35999 12.3178 11.6332 1.35999 0.317728 0.870051 0.892763
313 1 14.0384 11.9876 0.282663 14.0384 11.9876 0.282663 1.07951 0.744746 -0.556587
274 1 14.3683 10.8289 0.284343 14.3683 10.8289 0.284343 2.84126 1.60655 -2.28893
280 1 15.525 11.333 1.38111 15.525 11.333 1.38111 0.545068 0.627077 -1.04875
315 1 14.3119 11.7308 1.2646 14.3119 11.7308 1.2646 -2.06513 -0.81281 1.40874
317 1 15.014 11.5991 0.268518 15.014 11.5991 0.268518 -1.03018 -1.35579 -0.91951
278 1 15.8317 10.782 0.29395 15.8317 10.782 0.29395 1.43562 -1.65477 1.27013
319 1 15.7505 12.1759 0.747247 15.7505 12.1759 0.747247 0.724031 -0.486844 -0.948649
282 1 0.951696 12.8851 16.5036 0.951696 12.8851 -0.292331 -0.552148 1.72097 -1.40853
284 1 0.791281 12.5971 0.753235 0.791281 12.5971 0.753235 -0.100404 1.43628 0.810091
321 1 0.654593 13.6881 0.170935 0.654593 13.6881 0.170935 3.39183 0.244312 -1.41045
323 1 1.60548 13.1349 0.943558 1.60548 13.1349 0.943558 -0.026596 -1.1171 0.208004
286 1 3.81653 14.0533 -0.0429742 3.81653 14.0533 -0.0429742 0.978506 0.116713 -1.86956
288 1 2.71962 13.3335 0.914868 2.71962 13.3335 0.914868 0.0670906 1.76197 1.21457
325 1 1.92921 13.4822 0.0375092 1.92921 13.4822 0.0375092 0.726344 0.673139 -0.855805
327 1 2.51033 14.4141 0.593204 2.51033 14.4141 0.593204 -0.274827 0.380405 -1.44889
290 1 4.3618 13.1019 0.0330886 4.3618 13.1019 0.0330886 -1.0732 1.47357 -0.5977
292 1 3.458 12.2627 1.13226 3.458 12.2627 1.13226 0.625007 -2.95965 -1.17504
329 1 3.88139 13.2929 1.09809 3.88139 13.2929 1.09809 -0.249757 0.987922 1.11243
331 1 4.45181 12.6627 1.60966 4.45181 12.6627 1.60966 -0.741271 -2.23635 2.36421
294 1 6.30309 12.7454 0.731155 6.30309 12.7454 0.731155 2.24196 0.30206 0.109781
296 1 5.40839 12.8656 1.00792 5.40839 12.8656 1.00792 -0.665471 -0.972637 2.37891
333 1 6.37156 13.6249 16.2024 6.37156 13.6249 -0.593535 -1.10553 -1.42842 -0.965136
335 1 6.68917 14.2838 1.01604 6.68917 14.2838 1.01604 0.0514343 1.21159 -1.12775
298 1 7.33836 12.5645 1.06068 7.33836 12.5645 1.06068 -2.22639 -1.57485 -0.115459
300 1 7.26022 12.9926 2.02668 7.26022 12.9926 2.02668 1.94182 -1.46455 0.0244544
337 1 6.93638 13.7794 0.202269 6.93638 13.7794 0.202269 -1.09416 -1.3727 -0.257001
339 1 7.50885 13.581 1.1873 7.50885 13.581 1.1873 -0.28088 -2.10784 -0.544996
304 1 8.34662 11.7964 0.824095 8.34662 11.7964 0.824095 0.716217 -0.404875 0.262804
341 1 7.87274 14.1853 0.327177 7.87274 14.1853 0.327177 -1.02203 -0.896047 -0.546088
302 1 8.70341 13.1275 16.5962 8.70341 13.1275 -0.199736 0.794959 -0.516416 -0.468286
308 1 9.58683 13.8677 1.41432 9.58683 13.8677 1.41432 -1.30855 0.260919 -0.431573
343 1 8.52899 12.8282 1.00049 8.52899 12.8282 1.00049 0.492699 -0.354351 0.373219
345 1 10.0215 12.7732 0.0508099 10.0215 12.7732 0.0508099 1.30809 1.68529 0.330955
306 1 10.9216 12.2408 16.4932 10.9216 12.2408 -0.302812 0.621237 1.36952 0.516127
312 1 11.6937 12.4584 1.39733 11.6937 12.4584 1.39733 0.973211 -0.143141 -0.10534
347 1 10.6693 13.481 0.736391 10.6693 13.481 0.736391 0.950375 2.15624 -1.85189
349 1 11.6442 12.877 0.346784 11.6442 12.877 0.346784 -0.656961 -0.787484 1.49729
310 1 12.924 12.15 0.362197 12.924 12.15 0.362197 1.1352 0.556312 -1.08988
316 1 13.8676 12.9425 0.740543 13.8676 12.9425 0.740543 1.79837 0.603138 -0.49798
351 1 12.7781 13.3654 0.610772 12.7781 13.3654 0.610772 0.427197 -2.37426 -2.53875
353 1 13.4544 13.2512 16.5499 13.4544 13.2512 -0.246048 0.933534 -1.27765 -0.146968
314 1 14.4149 12.7458 16.4046 14.4149 12.7458 -0.391337 -1.72106 -0.190106 -1.57207
320 1 14.8481 12.6488 0.717005 14.8481 12.6488 0.717005 -0.0137103 -1.60844 -0.310908
355 1 14.4297 13.6658 0.238429 14.4297 13.6658 0.238429 -1.18053 -0.51021 -1.68926
357 1 15.7093 13.2223 0.364902 15.7093 13.2223 0.364902 -0.599357 -1.77281 -0.682919
318 1 16.7012 12.878 0.277 16.7012 12.878 0.277 -0.28694 0.49831 -0.496281
359 1 16.2939 13.8391 1.22896 16.2939 13.8391 1.22896 1.25778 1.1256 0.672978
322 1 1.11339 14.617 16.2731 1.11339 14.617 -0.522855 0.602547 0.291631 1.94675
324 1 0.462215 14.6527 0.904316 0.462215 14.6527 0.904316 -0.840161 -2.39347 -0.508019
361 1 0.363971 14.0021 16.0243 0.363971 14.0021 -0.771663 0.179716 -0.237298 -1.61862
363 1 1.22667 15.5428 0.143335 1.22667 15.5428 0.143335 -1.96837 0.485373 1.00928
326 1 2.63021 14.2598 16.3526 2.63021 14.2598 -0.443318 0.310998 0.74779 2.15394
328 1 1.42085 14.3351 0.531368 1.42085 14.3351 0.531368 0.500032 0.0556037 -0.694948
365 1 1.84721 15.2214 15.9255 1.84721 15.2214 -0.870455 -0.82207 -1.76235 -2.18665
367 1 3.46426 14.6145 0.841476 3.46426 14.6145 0.841476 -0.0096546 -0.617696 -0.395583
330 1 4.77121 13.6164 0.914523 4.77121 13.6164 0.914523 -0.467347 -0.986935 0.8244
332 1 3.38495 14.0974 1.68056 3.38495 14.0974 1.68056 -0.0471634 0.368524 -1.6396
369 1 4.12576 15.0829 0.261493 4.12576 15.0829 0.261493 0.649755 1.59531 1.98327
371 1 4.11749 15.1101 1.3401 4.11749 15.1101 1.3401 1.55524 -1.64261 -1.05266
334 1 5.72041 14.6726 16.6084 5.72041 14.6726 -0.187569 -2.37452 1.27522 -1.79783
336 1 5.84419 13.7892 0.387443 5.84419 13.7892 0.387443 1.8792 -0.136935 1.67897
373 1 5.03887 14.5692 0.644187 5.03887 14.5692 0.644187 -1.87201 -0.0349475 -1.15881
375 1 5.94033 15.0902 0.752074 5.94033 15.0902 0.752074 -2.22287 -1.02284 -0.40362
338 1 7.51229 15.0699 16.5337 7.51229 15.0699 -0.262222 2.39531 0.904049 0.664791
340 1 6.68327 14.9174 0.197785 6.68327 14.9174 0.197785 -1.31171 1.29808 -4.04785
377 1 7.64404 15.8824 0.511192 7.64404 15.8824 0.511192 0.531699 2.414 1.26592
379 1 7.65191 14.8698 0.915124 7.65191 14.8698 0.915124 -0.302876 -0.279867 2.7266
344 1 8.60232 13.8749 0.965117 8.60232 13.8749 0.965117 -0.632568 -2.60461 0.231796