ITEM: TIMESTEP
350
ITEM: NUMBER OF ATOMS
4000
ITEM: BOX BOUNDS pp pp pp
0.0000000000000000e+00 1.6795961913825074e+01
0.0000000000000000e+00 1.6795961913825074e+01
0.0000000000000000e+00 1.6795961913825074e+01
ITEM: ATOMS id type x y z xu yu zu vx vy vz
1 1 16.1971 16.482 16.3877 -0.598871 -0.313976 -0.408222 -0.126064 -1.21715 -2.12022
2 1 0.0994273 0.632193 0.0643132 0.0994273 0.632193 0.0643132 -0.850317 1.28557 -0.363235
3 1 1.07703 16.7633 0.466877 1.07703 -0.032637 0.466877 1.56462 -0.459453 -0.883182
4 1 15.9182 0.800192 0.760529 -0.877807 0.800192 0.760529 -1.06429 0.0849906 0.475418
5 1 1.55871 16.126 16.3947 1.55871 -0.669977 -0.401215 -0.333667 -2.59481 2.84174
6 1 2.7551 1.28025 16.4212 2.7551 1.28025 -0.374796 -1.2458 -1.09472 0.21361
7 1 3.16312 0.228997 0.0662512 3.16312 0.228997 0.0662512 -0.823385 1.7637 -1.4459
8 1 1.59013 0.692133 16.5686 1.59013 0.692133 -0.227324 0.905533 1.54458 0.337575
9 1 4.39403 0.478944 16.7823 4.39403 0.478944 -0.0136546 0.244785 -1.03013 0.916146
10 1 4.25156 2.02183 16.3299 4.25156 2.02183 -0.466088 -0.00355611 0.661624 -0.834865
11 1 5.38976 0.901527 16.7084 5.38976 0.901527 -0.0875719 -0.331297 0.93682 1.8547
12 1 3.0377 1.20472 1.47131 3.0377 1.20472 1.47131 -1.0682 0.256514 -2.30514
13 1 5.68405 -0.085035 16.4212 5.68405 -0.085035 -0.374766 -1.53971 -2.04942 -1.44904
14 1 6.73191 0.997904 0.852892 6.73191 0.997904 0.852892 -2.05745 -2.95006 0.630372
15 1 5.1437 16.5974 0.367399 5.1437 -0.198521 0.367399 0.80326 -0.113055 -2.26496
16 1 6.01574 1.70955 16.576 6.01574 1.70955 -0.219939 1.34541 -1.80627 -0.742553
17 1 5.93679 0.203388 0.914826 5.93679 0.203388 0.914826 0.639691 1.10545 0.217078
18 1 7.69688 0.864412 1.27948 7.69688 0.864412 1.27948 -0.323722 -2.38333 1.84998
19 1 8.70073 0.869474 1.21159 8.70073 0.869474 1.21159 1.69225 0.674608 0.559374
20 1 7.30215 1.99113 1.78482 7.30215 1.99113 1.78482 1.11869 -0.747921 0.139237
21 1 8.79879 0.138731 0.473235 8.79879 0.138731 0.473235 -1.50331 2.5769 1.34451
24 1 8.77123 1.94565 1.27861 8.77123 1.94565 1.27861 -0.189418 -0.672831 -0.150199
22 1 8.26897 1.17523 0.243713 8.26897 1.17523 0.243713 -2.42465 1.28686 2.01935
23 1 9.92702 1.19416 0.675905 9.92702 1.19416 0.675905 1.8255 1.00577 0.313881
25 1 10.3909 0.0511625 0.314254 10.3909 0.0511625 0.314254 0.363728 -1.76042 2.3111
28 1 10.393 2.12282 0.869675 10.393 2.12282 0.869675 0.860504 2.39075 -0.510027
26 1 11.2721 0.72071 0.272421 11.2721 0.72071 0.272421 -1.17193 -0.154975 2.03825
27 1 10.6066 0.535122 1.2878 10.6066 0.535122 1.2878 0.616894 -0.579101 -0.163398
29 1 12.2269 0.331018 0.382513 12.2269 0.331018 0.382513 0.90799 0.39806 -1.68839
32 1 11.6533 0.550344 1.3832 11.6533 0.550344 1.3832 -1.4544 1.28042 1.52413
30 1 13.0953 0.791941 0.471994 13.0953 0.791941 0.471994 -0.228261 -1.00104 0.792089
31 1 12.5794 0.0835936 1.5104 12.5794 0.0835936 1.5104 1.12292 -1.13572 1.38781
33 1 12.6181 15.5946 16.6435 12.6181 -1.20134 -0.152481 -0.527703 -1.65298 1.52773
36 1 13.459 0.942906 1.35722 13.459 0.942906 1.35722 -0.489411 1.2878 -1.33873
34 1 13.954 0.602473 16.1038 13.954 0.602473 -0.69218 -3.04992 1.20748 -2.84058
35 1 14.1762 16.6957 0.291098 14.1762 -0.100312 0.291098 -1.6528 -0.441228 0.431053
37 1 15.0424 0.366406 15.9186 15.0424 0.366406 -0.877358 0.0475543 -0.643637 0.0898331
40 1 15.4751 16.5928 0.297107 15.4751 -0.203196 0.297107 1.70745 -0.2685 -0.304971
38 1 15.9171 0.682142 16.2635 15.9171 0.682142 -0.532464 1.04209 0.612268 -2.39572
39 1 16.651 16.6128 0.650446 16.651 -0.183187 0.650446 -0.783808 -0.573595 1.1796
41 1 0.699858 1.53355 0.399368 0.699858 1.53355 0.399368 0.0067349 -2.35891 0.607708
42 1 2.12 2.84181 0.805654 2.12 2.84181 0.805654 -0.312183 -0.544664 -0.549778
43 1 1.30434 1.11135 1.07722 1.30434 1.11135 1.07722 1.79137 -2.51964 0.610742
44 1 0.532887 2.65263 0.646429 0.532887 2.65263 0.646429 0.664264 -1.95399 -0.0460029
45 1 1.94293 1.56401 0.223326 1.94293 1.56401 0.223326 0.0153221 -1.18699 1.94216
46 1 3.24216 2.15984 16.3557 3.24216 2.15984 -0.440223 1.99854 -0.914149 -1.86124
47 1 2.45532 0.876809 0.752329 2.45532 0.876809 0.752329 1.28639 0.649602 0.136294
48 1 2.11707 1.70183 1.27713 2.11707 1.70183 1.27713 0.685591 -0.865309 2.67476
49 1 3.66435 1.32257 0.185824 3.66435 1.32257 0.185824 0.664266 -0.413668 -0.557611
50 1 3.87105 2.43299 0.592131 3.87105 2.43299 0.592131 0.165394 0.888065 -0.937285
51 1 5.54038 2.09641 0.913527 5.54038 2.09641 0.913527 -0.66332 1.53662 0.128346
52 1 2.9475 1.88516 0.495201 2.9475 1.88516 0.495201 -0.710872 -0.211795 1.73005
53 1 5.1202 2.13973 0.036559 5.1202 2.13973 0.036559 1.8418 -1.95864 0.119945
54 1 6.57224 2.16245 0.656364 6.57224 2.16245 0.656364 -0.62045 0.223058 -1.00755
55 1 6.13932 1.87265 1.82015 6.13932 1.87265 1.82015 0.957001 -2.63733 0.807787
56 1 5.80094 2.92544 1.46122 5.80094 2.92544 1.46122 0.562773 2.42707 0.147022
57 1 6.78 1.10573 16.2391 6.78 1.10573 -0.55686 0.191131 -0.921262 0.342787
58 1 7.89055 2.58879 16.5883 7.89055 2.58879 -0.207613 -0.416696 -0.508024 -2.02436
59 1 7.71734 2.27956 0.871897 7.71734 2.27956 0.871897 0.225362 -1.31687 0.168606
60 1 6.88717 2.88829 1.2076 6.88717 2.88829 1.2076 -0.820554 -0.817646 3.41036
61 1 7.35809 1.61999 0.285961 7.35809 1.61999 0.285961 -0.00102537 -1.84446 -1.25938
64 1 8.53868 3.11049 0.42845 8.53868 3.11049 0.42845 -0.901406 0.125461 0.414428
62 1 8.86735 2.05258 0.214987 8.86735 2.05258 0.214987 3.37493 -0.838056 0.997815
63 1 9.3585 2.78828 1.07727 9.3585 2.78828 1.07727 -0.212769 -0.0212417 -0.432891
65 1 9.85755 2.12256 16.6856 9.85755 2.12256 -0.110319 -0.849655 0.165411 -0.374655
68 1 8.56468 4.07337 0.515503 8.56468 4.07337 0.515503 -0.641631 1.16237 -0.519306
66 1 10.5327 3.14424 0.691934 10.5327 3.14424 0.691934 1.57071 0.498964 -0.207037
67 1 11.0759 1.40247 1.22275 11.0759 1.40247 1.22275 0.303296 -1.50036 1.66804
69 1 11.5334 1.68954 0.122689 11.5334 1.68954 0.122689 -0.676854 0.743485 0.806373
72 1 11.8456 2.39337 0.831951 11.8456 2.39337 0.831951 -0.0420018 0.291373 -0.0275631
70 1 12.5988 1.94499 0.040638 12.5988 1.94499 0.040638 -1.2578 3.00192 -2.13325
71 1 12.3126 1.43828 0.956541 12.3126 1.43828 0.956541 -0.883375 0.031449 0.61177
73 1 13.7567 1.52333 0.200926 13.7567 1.52333 0.200926 -1.21753 1.84141 -0.478361
76 1 14.1654 2.27082 0.77882 14.1654 2.27082 0.77882 1.14839 -0.352544 1.925
74 1 15.3233 1.75884 1.02799 15.3233 1.75884 1.02799 1.57616 -1.88278 0.789795
75 1 14.5506 1.13233 0.867379 14.5506 1.13233 0.867379 0.400839 1.24577 2.46673
77 1 14.8135 1.17248 16.6317 14.8135 1.17248 -0.164311 0.294396 0.385248 0.687396
80 1 15.8769 2.4464 1.57055 15.8769 2.4464 1.57055 -1.12315 0.259184 -1.29476
78 1 0.243501 2.0834 16.5003 17.0395 2.0834 -0.295643 -0.857621 1.0374 0.326465
79 1 16.2932 1.59396 0.200324 16.2932 1.59396 0.200324 0.448773 -1.37181 -0.540611
81 1 0.688676 2.96008 16.4712 0.688676 2.96008 -0.324791 -0.292979 -1.36808 0.172023
82 1 1.17684 4.6025 0.916853 1.17684 4.6025 0.916853 2.23194 1.53102 0.99176
83 1 0.649381 3.67446 0.798942 0.649381 3.67446 0.798942 -0.984015 0.70267 0.0243574
84 1 0.197559 4.02484 1.56049 0.197559 4.02484 1.56049 -1.29255 0.181069 -0.2195
85 1 1.53126 3.5994 0.338423 1.53126 3.5994 0.338423 0.266597 0.94075 1.12868
86 1 2.29109 4.86876 16.3458 2.29109 4.86876 -0.450208 -1.10509 0.951177 -0.662676
87 1 2.75901 2.9366 16.7267 2.75901 2.9366 -0.0693067 0.569133 2.94874 0.0641006
88 1 2.2082 4.18627 0.768294 2.2082 4.18627 0.768294 0.408625 -2.77532 1.49349
89 1 3.66763 3.32507 16.7232 3.66763 3.32507 -0.0728041 -0.985657 -1.58157 -1.53803
90 1 4.43352 4.10868 16.4647 4.43352 4.10868 -0.331304 -0.235179 1.81767 -1.82942
91 1 4.54676 3.09251 0.6259 4.54676 3.09251 0.6259 -1.14899 0.924374 -1.86278
92 1 3.34942 4.28721 16.7967 3.34942 4.28721 0.000725266 -1.09708 0.569635 1.24398
93 1 5.88354 2.8679 0.261343 5.88354 2.8679 0.261343 -0.588928 0.830229 -0.260036
94 1 5.56751 4.14349 16.1703 5.56751 4.14349 -0.625676 1.41744 1.37086 -0.0181205
95 1 7.09167 3.08225 0.234726 7.09167 3.08225 0.234726 -1.56664 0.280971 0.454494
96 1 5.48875 3.64436 0.574128 5.48875 3.64436 0.574128 -0.208877 0.141803 0.436875
97 1 6.96453 3.58146 16.0254 6.96453 3.58146 -0.770536 -0.659545 0.15979 -0.805643
98 1 7.78476 4.24093 15.6978 7.78476 4.24093 -1.0982 0.957451 0.262766 -0.140936
99 1 7.86137 3.77884 16.6537 7.86137 3.77884 -0.142228 2.04898 -0.490918 -1.52489
100 1 7.10283 4.585 0.488011 7.10283 4.585 0.488011 -1.74839 -1.64261 -2.76553
101 1 8.50347 3.51232 15.8568 8.50347 3.51232 -0.939115 0.0054253 -1.5647 0.0808596
104 1 8.21487 4.86618 16.624 8.21487 4.86618 -0.17193 -0.295745 0.495607 -1.21285
102 1 9.71788 4.0157 16.0297 9.71788 4.0157 -0.766262 1.47077 1.74073 -1.44831
103 1 7.66439 3.48073 1.00531 7.66439 3.48073 1.00531 -0.373954 -1.36692 0.16353
105 1 10.616 4.25422 0.81124 10.616 4.25422 0.81124 0.212631 -0.0396513 -0.0859571
108 1 9.36556 4.59372 0.0591109 9.36556 4.59372 0.0591109 0.409201 0.768733 -0.364071
106 1 11.3029 3.64082 1.22246 11.3029 3.64082 1.22246 -0.796761 -1.39753 1.35973
107 1 11.5512 3.73405 0.160472 11.5512 3.73405 0.160472 -0.230397 -0.171624 -0.17829
109 1 13.2308 2.93355 0.769016 13.2308 2.93355 0.769016 0.29923 -1.80246 0.813229
112 1 12.05 4.20375 1.77829 12.05 4.20375 1.77829 0.594838 -0.176819 -2.10368
110 1 12.4518 3.61193 0.93994 12.4518 3.61193 0.93994 -0.103188 0.852793 1.17098
111 1 11.9105 3.00974 1.67316 11.9105 3.00974 1.67316 -0.977297 -0.316353 1.09985
113 1 13.1978 4.07047 1.65642 13.1978 4.07047 1.65642 0.542212 -0.150116 0.178953
116 1 13.7218 3.76606 2.5841 13.7218 3.76606 2.5841 1.0363 -0.196074 2.4692
114 1 14.3788 3.40279 0.341897 14.3788 3.40279 0.341897 0.647633 -1.0791 0.784908
115 1 14.8392 2.41418 1.61644 14.8392 2.41418 1.61644 -1.45509 -1.743 1.30467
117 1 14.8735 2.29441 16.8418 14.8735 2.29441 0.0458026 -0.745878 0.555966 1.06733
120 1 15.4197 3.26852 16.4655 15.4197 3.26852 -0.330501 0.177396 -0.750622 0.628003
118 1 16.7254 3.71775 16.6169 16.7254 3.71775 -0.17907 -0.0636408 2.5029 -0.475605
119 1 16.2348 2.81272 0.196261 16.2348 2.81272 0.196261 -0.556972 -0.491806 0.887494
121 1 0.35169 4.67376 0.344249 0.35169 4.67376 0.344249 -0.7074 -1.79265 3.05448
122 1 0.888256 5.66849 0.635837 0.888256 5.66849 0.635837 -0.86254 -2.62448 0.187994
123 1 0.246199 5.03789 1.91745 0.246199 5.03789 1.91745 -0.199465 -1.89524 3.57499
124 1 16.2054 4.70005 1.30885 -0.590516 4.70005 1.30885 -1.99377 -2.12515 1.50931
125 1 2.08034 5.3033 0.469058 2.08034 5.3033 0.469058 -0.141969 0.342089 1.85442
126 1 3.3444 6.03212 0.393968 3.3444 6.03212 0.393968 -0.112372 1.02804 -0.297192
127 1 3.17992 4.92009 0.827416 3.17992 4.92009 0.827416 -4.27269 -1.76297 -1.33054
128 1 1.21833 5.57719 1.63994 1.21833 5.57719 1.63994 0.829878 -0.368318 0.098862
129 1 3.43183 5.22442 16.4383 3.43183 5.22442 -0.357689 -1.28364 2.43435 -1.75637
130 1 4.33143 6.12484 16.6587 4.33143 6.12484 -0.137221 2.41638 0.704861 -0.24594
131 1 4.126 5.33796 0.5778 4.126 5.33796 0.5778 1.32271 0.798743 1.3373
132 1 3.42735 5.79162 1.41829 3.42735 5.79162 1.41829 0.576455 0.148236 -0.0956313
133 1 5.01628 4.57625 0.408985 5.01628 4.57625 0.408985 2.00801 -1.98291 1.81237
134 1 5.26315 6.7511 16.7238 5.26315 6.7511 -0.0722014 -0.141332 -0.900189 -0.508351
135 1 5.71354 6.21092 0.693669 5.71354 6.21092 0.693669 3.64135 0.25292 -0.150313
136 1 5.03177 5.99541 1.33811 5.03177 5.99541 1.33811 1.01599 -1.38026 1.58987
137 1 6.34251 5.04796 0.120548 6.34251 5.04796 0.120548 -1.68912 0.876435 0.205501
138 1 8.0447 5.92467 16.3831 8.0447 5.92467 -0.412897 0.841968 2.34041 -0.978784
139 1 7.72982 5.3943 0.740024 7.72982 5.3943 0.740024 -1.74835 -1.81464 -0.959926
140 1 6.08279 6.02187 16.4477 6.08279 6.02187 -0.348273 2.05495 1.04972 -0.417023
141 1 8.86207 5.60128 0.115712 8.86207 5.60128 0.115712 -0.295195 0.0861503 2.10845
144 1 8.58332 5.81707 15.5846 8.58332 5.81707 -1.21138 -0.283068 -1.73812 -0.80649
142 1 9.45554 6.91349 0.14647 9.45554 6.91349 0.14647 -0.710344 2.83375 -0.285176
143 1 8.8498 6.03547 1.01031 8.8498 6.03547 1.01031 0.186768 1.02195 -1.17867
145 1 10.4633 3.70627 15.4399 10.4633 3.70627 -1.35603 1.33537 0.151539 0.574352
148 1 10.1279 6.5025 0.762127 10.1279 6.5025 0.762127 -1.16395 -1.50187 -0.551291
146 1 11.2649 5.66101 0.934166 11.2649 5.66101 0.934166 -0.021189 0.845963 -1.15129
147 1 9.66617 6.03849 16.596 9.66617 6.03849 -0.199979 1.76462 0.175079 0.212185
149 1 11.4665 4.63771 0.601166 11.4665 4.63771 0.601166 -3.11313 1.28616 -0.808227
152 1 12.2302 5.66738 1.1302 12.2302 5.66738 1.1302 0.18192 -0.182714 -1.35794
150 1 11.9366 6.39364 0.398124 11.9366 6.39364 0.398124 -0.74395 3.63437 -0.401809
151 1 12.5133 4.40788 0.00120426 12.5133 4.40788 0.00120426 0.835296 -0.103933 -1.26561
153 1 13.4276 4.36043 0.410489 13.4276 4.36043 0.410489 -2.57791 -2.01054 -1.2535
156 1 13.3157 5.49692 1.48094 13.3157 5.49692 1.48094 0.525837 -0.307461 1.25338
154 1 14.0856 5.27138 0.587547 14.0856 5.27138 0.587547 2.14664 0.78105 1.03153
155 1 15.1602 4.16947 0.103437 15.1602 4.16947 0.103437 1.41274 -1.74475 -1.29682
157 1 14.2304 4.72539 16.3872 14.2304 4.72539 -0.408801 1.16893 0.172426 -1.82134
160 1 15.2888 5.36112 0.81632 15.2888 5.36112 0.81632 -0.0774059 -0.23317 0.627272
158 1 16.2144 5.46122 0.380792 16.2144 5.46122 0.380792 -0.106405 -0.437038 1.49932
159 1 16.0013 4.52214 16.3997 16.0013 4.52214 -0.396301 0.0239186 -0.480093 -1.2161
161 1 0.414288 6.66483 0.476888 0.414288 6.66483 0.476888 1.38811 0.787411 0.263535
162 1 1.61796 6.39558 0.530896 1.61796 6.39558 0.530896 -0.0025549 1.9528 -1.64212
163 1 0.352417 7.68517 1.63704 0.352417 7.68517 1.63704 -0.630351 -3.45228 1.04513
164 1 16.2432 7.76147 1.13918 -0.552748 7.76147 1.13918 0.674895 0.754054 0.577249
165 1 2.40502 6.32991 16.7055 2.40502 6.32991 -0.0904981 0.279527 2.07787 1.36127
166 1 2.00554 7.35876 -0.0235532 2.00554 7.35876 -0.0235532 1.76566 -0.677764 -0.664163
167 1 2.4384 6.07667 1.04172 2.4384 6.07667 1.04172 1.53192 -1.67455 -0.732516
168 1 1.13894 7.5322 0.924891 1.13894 7.5322 0.924891 -0.320437 2.21977 0.646136
169 1 3.1333 6.88753 1.16804 3.1333 6.88753 1.16804 0.927887 -0.931157 0.370429
170 1 2.96987 7.12263 0.103249 2.96987 7.12263 0.103249 2.28128 -1.07863 2.14745
171 1 4.64848 6.84553 0.711849 4.64848 6.84553 0.711849 0.472828 1.76801 -0.731899
172 1 2.18518 7.13553 1.00606 2.18518 7.13553 1.00606 -0.786687 -1.27261 -0.195911
173 1 3.91178 7.12412 0.104646 3.91178 7.12412 0.104646 -2.33148 -1.23096 -1.0766
174 1 5.44638 8.05032 16.7263 5.44638 8.05032 -0.069665 0.055456 0.90907 -0.0707889
175 1 5.69117 7.3173 0.527361 5.69117 7.3173 0.527361 3.23434 -0.626516 -1.5703
176 1 4.47874 8.27634 0.232144 4.47874 8.27634 0.232144 0.937146 0.857728 -3.46671
177 1 6.69951 6.84435 0.562741 6.69951 6.84435 0.562741 -0.131801 -0.150382 -0.231488
178 1 7.47553 7.39686 0.0752577 7.47553 7.39686 0.0752577 1.73182 -0.835591 0.326268
179 1 7.59778 6.88024 1.13683 7.59778 6.88024 1.13683 -2.01211 -0.7532 -0.867264
180 1 6.75792 7.58256 1.32043 6.75792 7.58256 1.32043 1.77543 -0.276696 0.800533
181 1 8.42409 6.87202 16.1699 8.42409 6.87202 -0.62611 1.45718 -0.955315 0.803622
184 1 9.22768 8.20485 0.547346 9.22768 8.20485 0.547346 -1.32807 1.66552 0.316774
182 1 10.2203 7.61236 16.5973 10.2203 7.61236 -0.198671 -0.503467 -0.850245 0.236122
183 1 8.37126 6.75699 0.565639 8.37126 6.75699 0.565639 1.30314 -1.04662 -1.34148
185 1 10.9373 5.67664 16.7526 10.9373 5.67664 -0.0433594 -1.71374 0.418139 -0.219504
188 1 11.1883 7.24297 1.14842 11.1883 7.24297 1.14842 0.0793349 1.61977 -0.154828
186 1 11.1161 8.22149 0.27938 11.1161 8.22149 0.27938 -0.286409 0.0595284 -0.353452
187 1 11.2176 7.16055 4.30796e-05 11.2176 7.16055 4.30796e-05 -1.62565 -0.294187 0.852253
189 1 11.4994 6.48567 16.0672 11.4994 6.48567 -0.728789 -0.25888 0.303534 -0.118019
192 1 12.3999 8.01781 0.897868 12.3999 8.01781 0.897868 -2.02272 -1.36053 1.35686
190 1 13.794 7.02523 16.0936 13.794 7.02523 -0.702317 0.443202 0.974464 1.80275
191 1 13.3405 6.80221 1.68763 13.3405 6.80221 1.68763 -0.919269 -0.735235 0.727197
193 1 12.5488 6.05871 16.1938 12.5488 6.05871 -0.602177 -0.668063 -1.12409 0.680236
196 1 13.2823 6.22022 0.331686 13.2823 6.22022 0.331686 1.44993 1.18368 -0.557471
194 1 14.5328 7.68061 15.6788 14.5328 7.68061 -1.11718 1.18231 -0.030064 1.93521
195 1 14.1368 6.14216 1.12576 14.1368 6.14216 1.12576 -2.59469 -0.868162 2.01586
197 1 15.5098 6.3378 0.261027 15.5098 6.3378 0.261027 -0.80343 -0.237377 -0.595806
200 1 15.2045 7.46284 0.916342 15.2045 7.46284 0.916342 -0.597689 -0.285719 3.04014
198 1 16.1114 6.52754 16.1819 16.1114 6.52754 -0.614084 -0.259911 -1.2313 0.449633
199 1 16.1788 6.52532 1.106 16.1788 6.52532 1.106 -0.225331 2.4452 3.97273
201 1 0.13831 8.06322 0.313874 0.13831 8.06322 0.313874 0.0794265 -0.149739 -0.452317
203 1 0.958367 8.84054 0.473949 0.958367 8.84054 0.473949 -1.2857 -0.87663 0.0457399
205 1 2.04501 9.40973 0.270354 2.04501 9.40973 0.270354 1.19353 0.512481 1.60191
207 1 2.79002 9.07829 0.950493 2.79002 9.07829 0.950493 0.624924 -4.9383 -0.339491
209 1 2.72319 8.23781 -0.0566717 2.72319 8.23781 -0.0566717 0.398218 -0.734131 -2.50622
211 1 3.507 7.91694 0.671289 3.507 7.91694 0.671289 0.326925 0.496669 0.446165
213 1 5.2401 8.9864 0.373726 5.2401 8.9864 0.373726 -1.94496 0.628163 0.114702
215 1 5.41692 8.25102 0.98239 5.41692 8.25102 0.98239 1.08293 0.282612 0.650196
217 1 7.27394 8.28589 0.633479 7.27394 8.28589 0.633479 1.56349 -1.25423 -0.252569
219 1 8.32343 7.7695 0.608991 8.32343 7.7695 0.608991 -0.67425 -0.699754 -0.662271
221 1 8.91686 8.97977 16.648 8.91686 8.97977 -0.147951 3.1014 -1.78539 -1.28305
223 1 10.1535 8.87846 0.539814 10.1535 8.87846 0.539814 1.44428 0.283186 1.06417
225 1 9.75228 8.8093 15.9691 9.75228 8.8093 -0.8269 0.846038 -0.643565 -0.0583705
227 1 10.795 9.67495 0.485215 10.795 9.67495 0.485215 -0.0721794 1.56098 -1.0294
229 1 12.5688 7.23421 16.643 12.5688 7.23421 -0.152994 0.771141 2.02142 -0.956838
231 1 12.8597 9.6789 1.17699 12.8597 9.6789 1.17699 0.0502419 -0.283659 -0.00245236
233 1 13.2109 8.15092 0.139013 13.2109 8.15092 0.139013 -0.566411 -1.25264 1.78751
235 1 13.554 7.25836 0.395767 13.554 7.25836 0.395767 -2.17038 -1.63739 0.13113
237 1 15.0992 7.90047 -0.00153777 15.0992 7.90047 -0.00153777 -1.6786 -1.63793 -1.16148
239 1 16.1158 7.12489 0.294915 16.1158 7.12489 0.294915 1.97762 -0.322876 0.345512
202 1 0.474251 10.5896 0.327071 0.474251 10.5896 0.327071 1.61635 2.49353 -0.512639
204 1 15.9499 8.48795 0.22423 -0.846042 8.48795 0.22423 1.1543 -2.72524 0.569418
241 1 16.6977 9.6099 0.158515 -0.0982933 9.6099 0.158515 0.91105 0.62096 1.34294
243 1 15.965 9.42793 0.86407 -0.830983 9.42793 0.86407 0.422378 -0.150479 0.066434
206 1 2.45737 9.74474 15.8536 2.45737 9.74474 -0.942386 -2.34668 -0.806435 1.51254
208 1 1.30265 10.2974 1.05518 1.30265 10.2974 1.05518 0.767006 2.196 -0.275924
245 1 1.26333 9.41355 15.8899 1.26333 9.41355 -0.906101 -1.51089 -3.02932 -0.998231
247 1 2.28981 10.3352 0.517593 2.28981 10.3352 0.517593 0.416592 0.710173 0.800131
210 1 4.18355 9.46069 16.3166 4.18355 9.46069 -0.479315 1.5019 0.0665965 1.74145
212 1 4.08202 9.05504 0.662652 4.08202 9.05504 0.662652 -1.75481 -2.2684 0.0475211
249 1 3.74188 10.0356 0.190295 3.74188 10.0356 0.190295 0.995771 0.822019 -1.21739
251 1 4.72389 10.0443 0.406597 4.72389 10.0443 0.406597 1.12624 0.685166 0.644387
214 1 5.54326 9.83773 1.12799 5.54326 9.83773 1.12799 0.315591 0.602864 0.440869
216 1 4.7765 9.05524 1.30881 4.7765 9.05524 1.30881 1.35077 -0.942776 0.136158
253 1 5.16267 9.93766 16.1244 5.16267 9.93766 -0.671529 0.365688 0.784817 0.263958
255 1 5.45681 11.0418 0.601281 5.45681 11.0418 0.601281 0.47179 1.82175 -2.57982
218 1 7.81836 9.12194 16.6498 7.81836 9.12194 -0.146152 0.449533 0.00771129 2.34245
220 1 6.30379 8.88019 0.825343 6.30379 8.88019 0.825343 0.95717 -0.431681 -0.533132
257 1 7.64777 10.0527 -0.000111594 7.64777 10.0527 -0.000111594 -0.585442 -2.57594 -0.232174
259 1 7.23068 9.19642 0.729057 7.23068 9.19642 0.729057 -1.03978 1.76287 0.951698
224 1 9.11918 9.0923 0.989178 9.11918 9.0923 0.989178 -1.06899 0.978489 -1.99853
261 1 8.57653 10.0579 16.6787 8.57653 10.0579 -0.117226 1.95001 -0.390192 -1.60337
222 1 9.83416 9.87859 15.8739 9.83416 9.87859 -0.922098 -0.699393 2.15968 -2.61017
228 1 9.75678 9.85218 0.271571 9.75678 9.85218 0.271571 0.705263 1.58414 -0.0623683
263 1 9.23239 11.1022 1.00591 9.23239 11.1022 1.00591 0.888804 1.39489 0.491091
265 1 10.5087 10.2736 16.3855 10.5087 10.2736 -0.410503 -1.42785 1.11914 2.90936e-06
226 1 11.4015 9.54946 16.3235 11.4015 9.54946 -0.472498 0.128779 0.733109 -0.664625
232 1 12.0147 9.23903 0.441383 12.0147 9.23903 0.441383 1.86077 -0.481141 0.506745
267 1 10.9824 10.7375 0.904288 10.9824 10.7375 0.904288 2.44605 0.458749 -2.3192
269 1 11.7573 10.4187 16.6272 11.7573 10.4187 -0.168811 -1.12963 0.0873823 0.442187
230 1 12.4375 9.5089 16.3653 12.4375 9.5089 -0.430649 -2.82323 -1.05233 -1.04482
236 1 13.3446 8.81357 1.04885 13.3446 8.81357 1.04885 -0.295913 0.0332305 -2.00871
271 1 12.9388 10.5828 1.49143 12.9388 10.5828 1.49143 -0.75105 -0.61759 0.286451
273 1 12.7276 10.5783 0.424097 12.7276 10.5783 0.424097 -1.15356 -1.21682 0.909269
234 1 13.9384 9.02797 0.186817 13.9384 9.02797 0.186817 0.104846 -0.723015 0.273672
240 1 14.948 8.9878 0.404442 14.948 8.9878 0.404442 -1.35766 1.28672 0.647517
275 1 13.6402 10.3983 0.822706 13.6402 10.3983 0.822706 -1.34532 2.64363 -1.38868
277 1 15.1607 9.80491 1.33074 15.1607 9.80491 1.33074 -1.581 -2.17564 0.27537
238 1 0.555627 8.89586 16.452 17.3516 8.89586 -0.343975 0.006913 -1.91669 -2.73124
279 1 16.4683 8.75276 1.43817 16.4683 8.75276 1.43817 0.649645 -0.319041 -1.23159
242 1 2.38939 11.7156 0.348759 2.38939 11.7156 0.348759 1.97401 0.703967 -0.407426
244 1 16.6698 10.5138 1.11385 -0.126201 10.5138 1.11385 0.468983 2.22981 1.52767
281 1 0.884952 11.0688 16.2471 0.884952 11.0688 -0.548885 1.91054 -1.83999 0.117301
283 1 1.77203 12.4727 0.0611489 1.77203 12.4727 0.0611489 -1.31751 -2.86169 0.958186
246 1 2.87022 10.6239 16.4802 2.87022 10.6239 -0.315723 -0.409433 -1.00901 -2.12976
248 1 0.977016 11.5813 0.858083 0.977016 11.5813 0.858083 -1.40575 -1.89362 0.498081
285 1 3.01797 12.5465 0.330928 3.01797 12.5465 0.330928 0.826598 0.748486 -0.329238
287 1 2.33375 12.3515 1.22563 2.33375 12.3515 1.22563 -0.860429 -1.83318 -0.956652
250 1 5.13338 10.8772 16.4677 5.13338 10.8772 -0.328309 0.952162 0.984631 0.802328
252 1 3.34365 11.3392 0.376019 3.34365 11.3392 0.376019 0.757445 0.619692 -0.101469
289 1 3.99943 12.2719 16.4531 3.99943 12.2719 -0.342852 -0.820493 0.481358 -1.80793
291 1 4.87904 12.2227 0.39161 4.87904 12.2227 0.39161 0.186151 -1.82988 -0.419996
254 1 7.37806 11.668 16.7981 7.37806 11.668 0.00214877 -1.73116 2.69472 2.55162
256 1 5.87314 12.2136 0.0511124 5.87314 12.2136 0.0511124 1.64946 1.29888 -1.70106
293 1 5.78589 13.1811 16.0932 5.78589 13.1811 -0.702776 1.31578 -1.83746 0.0496345
295 1 6.91418 10.7466 0.265685 6.91418 10.7466 0.265685 0.231483 -1.91945 -1.00426
258 1 8.13555 12.3172 0.250979 8.13555 12.3172 0.250979 -0.125046 0.0345945 2.07814
260 1 6.5891 9.908 0.581483 6.5891 9.908 0.581483 -1.10472 -0.911059 2.77365
297 1 6.54774 12.9968 16.6819 6.54774 12.9968 -0.114021 -1.09072 -0.559403 0.51885
299 1 7.93666 11.3708 1.67453 7.93666 11.3708 1.67453 1.11035 1.53546 1.00725
264 1 7.98383 11.2367 0.617965 7.98383 11.2367 0.617965 1.66288 2.02417 1.47465
301 1 7.50584 13.2104 0.124471 7.50584 13.2104 0.124471 0.607234 1.84214 1.43053
262 1 8.81099 11.1093 0.148026 8.81099 11.1093 0.148026 -1.70504 -0.141731 -0.022006
268 1 9.89218 10.8237 0.221383 9.89218 10.8237 0.221383 0.185281 -1.65099 -1.39114
303 1 9.6858 11.8742 0.497339 9.6858 11.8742 0.497339 0.43993 -1.37963 -0.14497
305 1 9.23448 12.8918 0.761547 9.23448 12.8918 0.761547 0.595093 -0.814843 -1.04352
266 1 10.4047 11.4924 16.4388 10.4047 11.4924 -0.357152 -2.12298 0.568952 1.27943
272 1 11.902 10.5173 1.26346 11.902 10.5173 1.26346 0.515125 -0.952229 -0.57358
307 1 10.9281 11.6178 0.411726 10.9281 11.6178 0.411726 -1.25117 1.03121 -2.47431
309 1 12.1059 11.3467 0.377046 12.1059 11.3467 0.377046 0.97424 0.946498 1.09773
270 1 13.3756 11.4174 16.5604 13.3756 11.4174 -0.235568 -2.17413 0.0839371 -2.18774
276 1 13.4322 11.5107 0.748279 13.4322 11.5107 0.748279 1.44681 0.796861 -3.25258
311 1 12.1789 11.1627 1.91429 12.1789 11.1627 1.91429 1.74383 0.00661052 -0.317674
313 1 13.9154 12.5757 0.277358 13.9154 12.5757 0.277358 -0.189741 2.86943 -0.906342
274 1 14.1211 10.7849 0.0719499 14.1211 10.7849 0.0719499 0.365286 -0.436848 0.527861
280 1 15.8785 11.1391 1.48241 15.8785 11.1391 1.48241 1.97534 -0.458963 -0.0891366
315 1 14.5295 11.6668 0.965642 14.5295 11.6668 0.965642 -1.29511 0.494585 -1.06286
317 1 15.2479 11.3643 0.355069 15.2479 11.3643 0.355069 1.26989 1.11365 -0.652022
278 1 15.8583 10.5334 0.443417 15.8583 10.5334 0.443417 -1.71284 -0.674602 0.695962
319 1 15.9532 12.086 0.732928 15.9532 12.086 0.732928 0.27979 -0.051558 0.0281584
282 1 0.459991 13.1084 16.0462 0.459991 13.1084 -0.749772 1.17449 2.01333 0.997848
284 1 0.869866 12.6873 0.829034 0.869866 12.6873 0.829034 -0.425707 0.927126 -0.0315013
321 1 0.961355 13.4698 0.155578 0.961355 13.4698 0.155578 1.59058 -0.177228 0.727781
323 1 1.77658 13.2509 1.06908 1.77658 13.2509 1.06908 -0.02688 0.938403 -0.568949
286 1 3.88132 14.3071 16.5611 3.88132 14.3071 -0.234853 -2.64174 -1.82089 2.40219
288 1 2.68842 13.5965 0.762032 2.68842 13.5965 0.762032 -0.239923 0.637952 1.03132
325 1 2.13847 13.4353 16.7218 2.13847 13.4353 -0.0741732 -0.569335 -0.147676 0.608986
327 1 2.32291 14.7662 1.43245 2.32291 14.7662 1.43245 -1.4964 0.769417 -0.357136
290 1 4.63226 13.1117 16.7586 4.63226 13.1117 -0.0373583 0.813209 0.53686 -0.0656334
292 1 3.91605 12.3082 0.756494 3.91605 12.3082 0.756494 -1.33384 -0.275544 -0.101689
329 1 3.83911 13.5205 0.464237 3.83911 13.5205 0.464237 -0.643562 0.300767 -1.36423
331 1 4.3685 12.9146 1.40183 4.3685 12.9146 1.40183 0.176535 0.609965 -1.08604
294 1 6.37737 12.9258 0.83531 6.37737 12.9258 0.83531 0.422177 -1.03113 1.54236
296 1 5.21642 12.5569 1.5428 5.21642 12.5569 1.5428 0.0709663 0.617517 -1.44202
333 1 6.24266 14.0207 15.6796 6.24266 14.0207 -1.11638 0.233426 0.0838053 -0.30072
335 1 6.61313 14.4202 0.924929 6.61313 14.4202 0.924929 -1.29391 0.30074 0.850392
298 1 7.54477 12.2081 1.11371 7.54477 12.2081 1.11371 0.833639 0.695748 -1.25903
300 1 7.47648 12.9286 2.1735 7.47648 12.9286 2.1735 -1.83514 -1.09439 0.726981
337 1 6.70556 13.9438 16.8078 6.70556 13.9438 0.0118383 0.927668 -1.30861 0.966731
339 1 7.20551 13.6583 1.1488 7.20551 13.6583 1.1488 1.34197 -0.589083 0.478845
304 1 8.68659 11.9479 1.02715 8.68659 11.9479 1.02715 2.78243 2.2107 0.47737
341 1 7.80967 14.1486 0.00136127 7.80967 14.1486 0.00136127 1.50801 0.19427 -3.39313
302 1 8.72057 13.3448 16.7761 8.72057 13.3448 -0.0198868 -0.475466 -1.66721 2.38434
308 1 9.33185 13.9511 1.10738 9.33185 13.9511 1.10738 -0.875501 -0.149493 0.587476
343 1 8.09301 13.117 1.3638 8.09301 13.117 1.3638 -1.60103 -0.873289 2.38474
345 1 9.9143 12.908 16.5639 9.9143 12.908 -0.232095 -0.199864 -0.83663 1.32761
306 1 10.6704 12.3923 16.2949 10.6704 12.3923 -0.501089 0.0524239 0.19667 0.616569
312 1 11.7151 12.6633 0.835409 11.7151 12.6633 0.835409 1.97145 0.172086 0.379162
347 1 10.4029 13.86 0.750532 10.4029 13.86 0.750532 1.06468 0.738801 -0.661657
349 1 11.3814 13.6786 0.245389 11.3814 13.6786 0.245389 0.328333 1.90652 2.14517
310 1 12.8313 12.1547 -0.00151265 12.8313 12.1547 -0.00151265 0.149485 -0.418772 0.123789
316 1 13.722 13.267 1.18922 13.722 13.267 1.18922 -1.79776 -0.448879 1.47312
351 1 12.8052 13.0849 0.548269 12.8052 13.0849 0.548269 1.58863 0.369756 0.963441
353 1 13.4416 13.4215 16.3588 13.4416 13.4215 -0.437161 0.116822 0.869971 -1.38294
314 1 14.7019 12.6047 16.1869 14.7019 12.6047 -0.609065 -0.446315 1.68276 -1.09441
320 1 15.0229 12.5485 0.542758 15.0229 12.5485 0.542758 0.70309 0.990145 -1.99632
355 1 14.2274 13.6885 0.245166 14.2274 13.6885 0.245166 -1.55838 -1.35234 -0.0429276
357 1 15.4198 13.2355 16.6018 15.4198 13.2355 -0.194195 -0.0883814 -2.31118 0.460963
318 1 -0.0209203 12.5292 0.247824 16.775 12.5292 0.247824 -1.38674 -2.13051 -0.70655
359 1 16.156 14.3298 1.24972 16.156 14.3298 1.24972 0.85914 1.91014 -0.249233
322 1 1.5152 14.3683 0.0908425 1.5152 14.3683 0.0908425 0.0998017 -0.988932 1.13315
324 1 0.426019 14.6394 1.18818 0.426019 14.6394 1.18818 -0.52209 -2.30801 0.340359
361 1 0.794143 14.038 15.8252 0.794143 14.038 -0.970776 -0.831634 0.330426 1.47891
363 1 1.57483 15.4546 0.603606 1.57483 15.4546 0.603606 3.75538 -0.530688 0.804813
326 1 2.66658 14.3168 16.2068 2.66658 14.3168 -0.589196 2.61171 -0.35493 0.304632
328 1 1.52717 14.2346 1.12402 1.52717 14.2346 1.12402 0.0410011 1.31051 -0.64631
365 1 1.9607 15.1222 16.0006 1.9607 15.1222 -0.795373 -0.55209 -1.01869 0.960627
367 1 3.14431 14.5638 0.903474 3.14431 14.5638 0.903474 0.550374 -0.784412 2.41939
330 1 5.17215 13.2122 0.830639 5.17215 13.2122 0.830639 3.00881 -0.145263 0.409195
332 1 3.50161 13.9034 1.64502 3.50161 13.9034 1.64502 1.70407 0.986623 0.871509
369 1 3.60031 15.1956 0.163869 3.60031 15.1956 0.163869 -0.917746 0.47616 0.218005
371 1 4.07621 14.815 1.59737 4.07621 14.815 1.59737 0.542722 -0.494673 -0.248089
334 1 5.50974 15.0086 16.3457 5.50974 15.0086 -0.450286 1.66968 0.976732 2.08416
336 1 5.72974 14.1427 0.342328 5.72974 14.1427 0.342328 -2.04151 0.215678 -0.137222
373 1 4.65499 14.1823 0.812087 4.65499 14.1823 0.812087 -1.40596 -0.360449 -0.100012
375 1 5.80129 15.2002 0.776883 5.80129 15.2002 0.776883 1.62743 0.608063 -0.404528
338 1 7.71934 15.238 -0.0227356 7.71934 15.238 -0.0227356 -1.19002 0.048599 -0.387928
340 1 6.59417 15.033 0.0118051 6.59417 15.033 0.0118051 1.08507 1.38066 -1.84243
377 1 8.22902 16.2977 1.09272 8.22902 16.2977 1.09272 0.421713 -0.342206 2.12834
379 1 7.82349 14.8905 1.11981 7.82349 14.8905 1.11981 1.04037 0.326672 1.64082
344 1 8.27567 14.0249 0.9351 8.27567 14.0249 0.9351 -0.409011 1.19258 1.60701