ITEM: TIMESTEP
200
ITEM: NUMBER OF ATOMS
4000
ITEM: BOX BOUNDS pp pp pp
0.0000000000000000e+00 1.6795961913825074e+01
0.0000000000000000e+00 1.6795961913825074e+01
0.0000000000000000e+00 1.6795961913825074e+01
ITEM: ATOMS id type x y z xu yu zu vx vy vz
1 1 16.3927 16.5199 16.2307 -0.403216 -0.276082 -0.565304 -1.28512 -0.587675 -1.47222
2 1 0.344461 0.728863 0.309168 0.344461 0.728863 0.309168 1.77787 -1.05447 -0.101979
3 1 0.961995 16.5519 0.662555 0.961995 -0.244105 0.662555 -0.14041 1.08076 0.448228
4 1 16.4928 0.679198 1.07303 -0.303144 0.679198 1.07303 -1.60684 -1.32894 0.268678
5 1 1.38844 16.5435 16.3471 1.38844 -0.252425 -0.448813 -0.0592927 -0.80283 0.149929
6 1 2.38309 0.669882 16.4428 2.38309 0.669882 -0.353164 -0.763513 -1.43089 -1.07823
7 1 3.20014 0.0549148 0.451569 3.20014 0.0549148 0.451569 1.29508 1.07389 -0.00456315
8 1 1.54196 0.553659 0.159506 1.54196 0.553659 0.159506 -1.04707 -2.07563 -0.347657
9 1 4.136 16.7479 0.0953571 4.136 -0.0480265 0.0953571 -1.08182 1.86533 1.03712
10 1 4.00357 1.23173 16.5981 4.00357 1.23173 -0.197908 -0.240229 0.978099 0.364181
11 1 4.78573 0.865569 0.315145 4.78573 0.865569 0.315145 1.16098 0.672262 -0.889004
12 1 3.64454 1.41655 1.20334 3.64454 1.41655 1.20334 -1.65934 -1.29753 -0.464679
13 1 5.83736 0.36646 0.18327 5.83736 0.36646 0.18327 -0.250062 2.04562 -0.172678
14 1 6.54966 0.982663 0.304776 6.54966 0.982663 0.304776 1.13716 -1.37858 1.46274
15 1 4.885 16.6062 0.908099 4.885 -0.189734 0.908099 -1.85401 0.514846 -2.9753
16 1 5.57952 1.48063 16.7368 5.57952 1.48063 -0.0592015 2.19631 1.1873 -3.44011
17 1 6.65275 16.7916 0.904483 6.65275 -0.00432222 0.904483 0.719455 0.0634172 -0.592142
18 1 7.52127 0.733262 0.456751 7.52127 0.733262 0.456751 1.73616 0.447505 -0.396748
19 1 8.23516 0.231234 1.32152 8.23516 0.231234 1.32152 0.152757 -0.0190947 1.50889
20 1 6.96007 1.30628 1.22706 6.96007 1.30628 1.22706 1.35863 -1.50835 1.45279
21 1 8.83132 16.7549 0.322314 8.83132 -0.0410763 0.322314 0.32322 0.83574 -0.990295
24 1 8.33069 1.15339 1.77354 8.33069 1.15339 1.77354 1.58929 -1.44479 0.476974
22 1 8.53726 0.965005 0.244428 8.53726 0.965005 0.244428 1.07027 -0.872547 1.43612
23 1 9.40594 0.758522 0.995952 9.40594 0.758522 0.995952 1.07417 0.784795 -0.709883
25 1 9.95294 0.0572825 0.116657 9.95294 0.0572825 0.116657 3.48082 1.00578 -0.132027
28 1 10.0269 1.60875 0.884206 10.0269 1.60875 0.884206 -0.446099 1.13934 1.70671
26 1 10.9612 1.11235 0.092952 10.9612 1.11235 0.092952 1.44507 -1.0504 0.427859
27 1 10.607 0.521993 0.85297 10.607 0.521993 0.85297 -0.543919 1.08423 0.143511
29 1 11.9483 0.490889 0.101699 11.9483 0.490889 0.101699 -0.498729 0.43784 1.70298
32 1 11.606 0.985585 0.999087 11.606 0.985585 0.999087 -2.6492 0.113765 -0.669641
30 1 12.8921 0.91698 16.5128 12.8921 0.91698 -0.283116 1.91993 -0.517472 -2.3534
31 1 12.9372 0.106637 0.687398 12.9372 0.106637 0.687398 -1.07909 0.368422 2.69024
33 1 12.8708 16.0624 0.273426 12.8708 -0.733587 0.273426 0.491789 -0.315063 -0.173205
36 1 13.7941 0.757375 1.10513 13.7941 0.757375 1.10513 -0.245735 -1.21894 -0.258491
34 1 14.1486 0.653171 16.6198 14.1486 0.653171 -0.176123 -1.74811 -1.14485 -1.89968
35 1 13.8947 16.7171 0.441918 13.8947 -0.0789076 0.441918 1.38916 -0.912762 0.240012
37 1 15.2532 0.346154 16.3577 15.2532 0.346154 -0.438273 0.0853851 0.990758 0.00665505
40 1 15.5857 16.717 0.588395 15.5857 -0.0789814 0.588395 -0.35935 -0.475001 1.44008
38 1 16.2036 0.746144 16.6545 16.2036 0.746144 -0.141419 -2.70928 0.861704 -1.61421
39 1 16.6904 16.6172 0.520084 16.6904 -0.178738 0.520084 2.93784 1.56062 1.62411
41 1 0.230565 1.72037 16.6276 0.230565 1.72037 -0.168339 -1.90358 2.34084 2.9362
42 1 1.74042 2.45136 0.938293 1.74042 2.45136 0.938293 1.27447 -0.241673 0.881332
43 1 1.34937 1.48531 0.525669 1.34937 1.48531 0.525669 -0.343357 0.695342 -0.963275
44 1 0.292962 2.67258 0.545631 0.292962 2.67258 0.545631 -0.333853 -0.743234 0.654478
45 1 2.13563 1.54594 16.6511 2.13563 1.54594 -0.14487 2.54366 1.7491 -0.426397
46 1 2.93057 2.33304 16.3953 2.93057 2.33304 -0.400646 1.38983 2.89736 -1.43292
47 1 2.28375 0.833489 0.750223 2.28375 0.833489 0.750223 1.26915 0.886049 -2.03834
48 1 1.97351 1.59959 1.36794 1.97351 1.59959 1.36794 1.03356 0.711501 0.826831
49 1 3.00102 1.33077 0.289474 3.00102 1.33077 0.289474 -1.12365 -2.14482 -0.765885
50 1 3.6257 2.15364 0.4189 3.6257 2.15364 0.4189 0.377266 -1.1649 -0.0786542
51 1 5.24464 1.85547 0.760039 5.24464 1.85547 0.760039 -0.770436 -0.210351 -0.0908747
52 1 2.71362 2.04885 0.823327 2.71362 2.04885 0.823327 -0.741795 1.6071 -1.24045
53 1 4.60246 2.16005 16.7249 4.60246 2.16005 -0.0710801 1.48666 0.855148 1.92632
54 1 6.33065 2.07566 0.288412 6.33065 2.07566 0.288412 0.472241 0.781397 -0.724637
55 1 5.69906 1.73244 1.60439 5.69906 1.73244 1.60439 1.44258 -1.65273 0.536611
56 1 6.0224 2.69342 1.11482 6.0224 2.69342 1.11482 0.819856 -1.16667 1.9006
57 1 6.92963 1.32726 16.2502 6.92963 1.32726 -0.545769 -0.737657 -0.137673 -2.54419
58 1 7.91043 2.68855 16.5651 7.91043 2.68855 -0.230872 0.67833 2.11516 -1.11207
59 1 7.91 2.0642 1.48962 7.91 2.0642 1.48962 -0.551371 1.0571 0.591853
60 1 7.17952 2.69216 0.803276 7.17952 2.69216 0.803276 -1.04343 1.36702 0.323459
61 1 7.63252 1.69717 0.558531 7.63252 1.69717 0.558531 1.12092 2.81854 0.106814
64 1 8.20299 2.8061 0.729431 8.20299 2.8061 0.729431 0.260923 0.294829 -1.71462
62 1 8.85416 1.94765 0.0533137 8.85416 1.94765 0.0533137 -0.783276 -0.708747 0.554486
63 1 8.80648 1.65844 1.01763 8.80648 1.65844 1.01763 1.00132 -0.28921 0.546338
65 1 9.99287 1.47145 16.5532 9.99287 1.47145 -0.242778 -2.16747 -1.0339 -0.963562
68 1 9.02789 3.19364 0.393603 9.02789 3.19364 0.393603 -0.665614 2.65241 0.00900817
66 1 10.4595 2.50445 0.365615 10.4595 2.50445 0.365615 -0.0298829 0.836348 -2.60235
67 1 11.1116 1.95185 0.855957 11.1116 1.95185 0.855957 -0.0959431 0.085038 -1.37153
69 1 11.8395 1.76777 0.114956 11.8395 1.76777 0.114956 1.14469 1.5186 -0.513365
72 1 12.2452 2.09623 1.09326 12.2452 2.09623 1.09326 -1.29328 0.662458 -0.335091
70 1 13.102 2.03143 0.170288 13.102 2.03143 0.170288 -0.297336 -1.18556 0.870259
71 1 13.0182 1.3413 0.878 13.0182 1.3413 0.878 -1.2318 -0.522075 -3.90753
73 1 13.9848 1.53651 0.476802 13.9848 1.53651 0.476802 0.554031 0.0649682 3.52936
76 1 13.6401 2.83007 1.06208 13.6401 2.83007 1.06208 0.98077 -1.46085 -1.42531
74 1 15.2724 2.11692 0.374834 15.2724 2.11692 0.374834 -2.13582 -0.620758 0.178647
75 1 15.1878 0.86089 1.02675 15.1878 0.86089 1.02675 1.09385 -1.22103 -0.782326
77 1 15.1713 1.28609 16.6293 15.1713 1.28609 -0.166627 -0.253719 -1.2417 -0.813359
80 1 15.8316 2.56136 1.19862 15.8316 2.56136 1.19862 0.766094 -2.02351 1.58385
78 1 16.3691 2.51095 16.6235 16.3691 2.51095 -0.172429 0.537139 -0.107297 0.317224
79 1 16.2196 1.61968 0.628301 16.2196 1.61968 0.628301 0.995958 0.0876696 -2.44938
81 1 0.239027 3.1998 16.3895 0.239027 3.1998 -0.406462 0.856537 -0.729393 -0.691049
82 1 1.15333 4.54654 0.455978 1.15333 4.54654 0.455978 -0.638638 2.25917 -1.34626
83 1 0.222087 3.85039 0.354691 0.222087 3.85039 0.354691 -0.688927 0.603723 -1.40125
84 1 0.374247 4.35838 1.50635 0.374247 4.35838 1.50635 0.721101 -1.92782 0.303321
85 1 1.44644 3.5062 0.160222 1.44644 3.5062 0.160222 0.326089 0.458562 1.17293
86 1 2.86157 4.2605 16.2853 2.86157 4.2605 -0.510654 -0.265394 -0.217017 -0.687341
87 1 2.51125 3.16636 0.223393 2.51125 3.16636 0.223393 1.52395 1.91165 0.44177
88 1 2.54359 4.31746 0.528852 2.54359 4.31746 0.528852 1.75111 -1.36295 -1.70721
89 1 3.94497 2.85428 16.6733 3.94497 2.85428 -0.122614 0.865182 1.353 0.15032
90 1 4.39956 4.13876 0.220218 4.39956 4.13876 0.220218 1.31599 -1.00966 -0.0776801
91 1 4.38156 2.89574 0.737633 4.38156 2.89574 0.737633 -1.26852 -1.04593 0.752057
92 1 3.49833 3.74462 0.607261 3.49833 3.74462 0.607261 -0.520212 -0.461396 -0.398757
93 1 5.17523 3.25433 0.0897536 5.17523 3.25433 0.0897536 0.371976 -0.0274305 0.362106
94 1 5.1831 4.26102 15.9466 5.1831 4.26102 -0.849344 -1.45135 0.0928183 -0.0954563
95 1 6.55425 3.52875 0.355344 6.55425 3.52875 0.355344 0.250982 -0.459115 -1.68715
96 1 5.51496 4.14016 0.581894 5.51496 4.14016 0.581894 0.564926 0.0360556 -0.0136214
97 1 7.11277 3.41903 16.3701 7.11277 3.41903 -0.425818 0.412715 1.97589 -1.43717
98 1 7.75086 4.15056 16.1947 7.75086 4.15056 -0.601311 -1.78893 -0.342655 -0.109705
99 1 7.55518 3.58911 0.630618 7.55518 3.58911 0.630618 -0.404191 0.93606 -1.76174
100 1 7.01865 4.41747 0.415751 7.01865 4.41747 0.415751 -1.19249 1.68948 1.0654
101 1 8.42112 3.51555 16.4678 8.42112 3.51555 -0.328122 -0.566204 -2.46445 -1.42659
104 1 8.05014 4.5736 0.422739 8.05014 4.5736 0.422739 0.19346 0.478326 0.712522
102 1 9.19099 4.24276 16.6218 9.19099 4.24276 -0.174196 0.547746 -0.249926 -1.91473
103 1 8.34672 3.86556 1.2345 8.34672 3.86556 1.2345 -0.579316 -0.302904 1.69508
105 1 10.4717 4.18233 0.0585985 10.4717 4.18233 0.0585985 2.5182 0.675143 0.0776648
108 1 9.0787 4.70396 0.677646 9.0787 4.70396 0.677646 -0.213971 1.63556 -0.114841
106 1 11.3545 3.70701 1.22904 11.3545 3.70701 1.22904 -0.246815 -0.320709 1.45426
107 1 11.7639 2.81803 0.345974 11.7639 2.81803 0.345974 -1.09509 1.0445 -0.509106
109 1 12.7769 2.94015 0.515928 12.7769 2.94015 0.515928 1.58469 -0.860839 0.896885
112 1 12.4557 3.88064 1.70542 12.4557 3.88064 1.70542 0.624834 0.908032 0.828894
110 1 12.2454 3.82651 0.535009 12.2454 3.82651 0.535009 -0.133932 -0.410846 -0.112125
111 1 13.0011 2.84289 1.85587 13.0011 2.84289 1.85587 0.46515 0.294694 1.76605
113 1 13.1997 3.76782 0.951072 13.1997 3.76782 0.951072 -1.13193 -1.43945 -2.03927
116 1 13.4211 3.9007 2.29368 13.4211 3.9007 2.29368 0.86542 -0.0564453 1.27152
114 1 14.3335 3.54915 0.340576 14.3335 3.54915 0.340576 1.46708 -0.430514 -1.70972
115 1 14.8347 2.82177 0.92107 14.8347 2.82177 0.92107 0.167598 -2.87295 -0.405556
117 1 14.918 2.8737 16.6659 14.918 2.8737 -0.130024 1.1226 0.0415497 -0.933953
120 1 15.3669 3.83894 0.143479 15.3669 3.83894 0.143479 -0.552721 0.11135 1.15867
118 1 16.3427 3.98782 16.3953 16.3427 3.98782 -0.400649 -0.656635 -0.806032 -1.32584
119 1 16.1636 3.2915 0.517218 16.1636 3.2915 0.517218 -0.414411 0.217922 1.15074
121 1 16.7296 5.03134 16.7603 -0.0663698 5.03134 -0.0356558 -0.409675 1.40245 -0.269734
122 1 0.833908 5.85299 0.197219 0.833908 5.85299 0.197219 -0.601129 -0.7192 -0.428025
123 1 0.69718 5.57163 1.16174 0.69718 5.57163 1.16174 -0.179582 -0.245409 2.2887
124 1 16.5966 5.18489 1.32168 -0.199342 5.18489 1.32168 -1.08661 -1.36151 -0.190784
125 1 2.02499 5.09232 0.0917244 2.02499 5.09232 0.0917244 2.79349 1.24691 -0.36066
126 1 2.87648 6.02407 0.345383 2.87648 6.02407 0.345383 1.20938 0.760762 -0.584927
127 1 3.02967 5.27842 0.941859 3.02967 5.27842 0.941859 0.785988 1.75553 1.57267
128 1 1.51236 6.14328 1.28413 1.51236 6.14328 1.28413 0.0423812 -3.27585 -0.0180813
129 1 3.13313 5.28876 16.538 3.13313 5.28876 -0.257943 -1.09672 -0.575048 0.661204
130 1 4.03402 6.02259 0.104221 4.03402 6.02259 0.104221 -0.30072 -0.902009 -1.95312
131 1 4.09595 5.15596 0.930251 4.09595 5.15596 0.930251 0.930519 0.660924 1.23062
132 1 3.56293 5.86056 1.51535 3.56293 5.86056 1.51535 0.335916 0.0746129 0.311542
133 1 5.00155 5.08597 0.404992 5.00155 5.08597 0.404992 -0.503724 -0.619224 0.632214
134 1 5.40096 6.27827 0.0125632 5.40096 6.27827 0.0125632 1.68596 2.61416 -1.01508
135 1 5.45224 5.77022 0.956099 5.45224 5.77022 0.956099 -2.12389 -2.38603 0.307361
136 1 4.5116 5.9751 1.25892 4.5116 5.9751 1.25892 2.62583 0.80146 0.919366
137 1 6.16871 4.76075 0.195303 6.16871 4.76075 0.195303 -0.757823 0.767372 1.41289
138 1 7.46757 5.65073 0.395865 7.46757 5.65073 0.395865 -1.18736 1.87843 -1.63476
139 1 8.13453 5.64187 1.18168 8.13453 5.64187 1.18168 1.41589 1.52811 -0.239227
140 1 6.24357 5.75706 0.0371137 6.24357 5.75706 0.0371137 1.70828 1.40244 -0.802722
141 1 8.62574 5.49791 0.0672508 8.62574 5.49791 0.0672508 0.381714 0.658838 0.336127
144 1 7.88959 6.29117 16.5545 7.88959 6.29117 -0.24147 -0.926858 0.360276 0.0199907
142 1 9.67356 6.07341 16.6247 9.67356 6.07341 -0.171244 1.25743 0.997946 -0.0969213
143 1 9.16375 6.151 1.03109 9.16375 6.151 1.03109 -0.312643 -2.61317 0.347919
145 1 10.053 4.4736 16.0606 10.053 4.4736 -0.735318 1.16756 -2.5847 -2.70937
148 1 10.3342 5.97897 0.705084 10.3342 5.97897 0.705084 0.370648 -0.863274 -0.0421776
146 1 11.458 5.64089 0.651042 11.458 5.64089 0.651042 -2.69156 1.84131 0.981032
147 1 9.97268 5.07729 0.26476 9.97268 5.07729 0.26476 -2.10518 0.0271054 -1.7151
149 1 11.3436 4.61856 0.441232 11.3436 4.61856 0.441232 -1.58796 -0.946636 0.165355
152 1 11.7028 6.4749 1.22698 11.7028 6.4749 1.22698 0.812705 -2.1104 1.93608
150 1 12.055 6.67772 0.249214 12.055 6.67772 0.249214 -0.504842 0.45237 -0.637952
151 1 12.4098 4.91805 0.240162 12.4098 4.91805 0.240162 -1.123 -0.977418 -1.81892
153 1 13.9802 4.50745 0.516876 13.9802 4.50745 0.516876 -0.0774371 -1.38156 -1.22932
156 1 13.4734 5.50046 0.928748 13.4734 5.50046 0.928748 -0.205428 0.506349 -0.185625
154 1 13.9875 5.43517 16.701 13.9875 5.43517 -0.0950032 0.730782 -0.547614 0.0517096
155 1 14.8785 4.55226 0.964214 14.8785 4.55226 0.964214 -1.36159 0.119425 0.766246
157 1 14.5344 4.40977 16.5172 14.5344 4.40977 -0.278784 -0.325392 -1.6565 -1.11436
160 1 15.5428 5.51856 0.724194 15.5428 5.51856 0.724194 0.309182 -1.91049 -1.18019
158 1 16.2782 5.96545 0.128291 16.2782 5.96545 0.128291 0.275064 -0.811599 1.88831
159 1 15.7554 4.87046 16.6279 15.7554 4.87046 -0.168083 0.357278 0.47101 0.0051128
161 1 0.157983 6.59729 0.44743 0.157983 6.59729 0.44743 0.836707 0.499803 0.480567
162 1 1.06367 6.9196 0.77421 1.06367 6.9196 0.77421 1.80127 -1.71088 1.67647
163 1 0.406022 7.11443 1.56436 0.406022 7.11443 1.56436 -3.67952 0.826005 -1.37283
164 1 16.3993 7.50306 0.93815 -0.396669 7.50306 0.93815 0.306791 -0.875279 -0.37405
165 1 2.11126 6.83697 0.214488 2.11126 6.83697 0.214488 1.72872 -1.39894 -0.47465
166 1 2.21586 7.79125 16.2703 2.21586 7.79125 -0.525678 0.117688 1.50215 -0.653009
167 1 2.48391 6.11082 1.32921 2.48391 6.11082 1.32921 -1.46873 -0.948787 -0.865517
168 1 1.81461 8.06881 1.00848 1.81461 8.06881 1.00848 -0.779662 -1.49141 -1.4452
169 1 2.99556 6.8678 0.842214 2.99556 6.8678 0.842214 -0.348226 -0.99829 -0.382269
170 1 3.69975 7.21261 0.188552 3.69975 7.21261 0.188552 -0.408208 0.136578 -2.88309
171 1 4.29658 7.02105 0.989398 4.29658 7.02105 0.989398 -0.0157379 -0.364759 0.290082
172 1 2.61826 7.67177 1.29411 2.61826 7.67177 1.29411 -0.762014 -0.206598 1.12667
173 1 4.74372 6.96445 16.7173 4.74372 6.96445 -0.0786324 0.251033 0.943186 -0.417852
174 1 5.59371 7.8469 16.792 5.59371 7.8469 -0.00397645 -0.726558 -3.58467 0.928922
175 1 5.3758 7.27965 0.771439 5.3758 7.27965 0.771439 -0.99191 1.41441 0.123601
176 1 4.55805 8.10257 0.311244 4.55805 8.10257 0.311244 0.856162 -0.0356548 -1.11644
177 1 6.30538 7.02022 0.462331 6.30538 7.02022 0.462331 0.970083 -1.04014 2.24238
178 1 7.65969 7.30551 16.747 7.65969 7.30551 -0.0489204 -2.17448 0.390168 -0.777011
179 1 7.15477 6.54854 0.788546 7.15477 6.54854 0.788546 1.63521 -1.34274 1.90316
180 1 6.64935 7.84534 0.873074 6.64935 7.84534 0.873074 0.0695333 -0.927992 0.921353
181 1 8.04311 6.88817 15.7631 8.04311 6.88817 -1.03285 0.939614 1.15964 0.63931
184 1 9.34739 7.73582 0.389735 9.34739 7.73582 0.389735 1.79653 0.392079 -1.88177
182 1 10.5289 7.80264 16.5888 10.5289 7.80264 -0.207134 -0.749797 0.805538 -0.741323
183 1 8.62748 6.95565 0.148634 8.62748 6.95565 0.148634 1.17785 -0.29373 0.420215
185 1 10.7093 5.54626 15.9689 10.7093 5.54626 -0.827098 -0.812631 0.605225 1.11416
188 1 10.7308 8.09802 1.28751 10.7308 8.09802 1.28751 1.58745 3.17186 -1.13172
186 1 11.2364 8.46942 0.062564 11.2364 8.46942 0.062564 0.456633 1.27987 1.93207
187 1 10.8819 6.91167 0.469656 10.8819 6.91167 0.469656 0.0484011 3.1759 -1.8962
189 1 11.38 6.71787 16.312 11.38 6.71787 -0.483958 1.54563 -1.104 -0.0879111
192 1 12.0431 8.55519 1.01489 12.0431 8.55519 1.01489 -0.115097 -1.54859 -0.0729306
190 1 12.5664 6.92216 16.0645 12.5664 6.92216 -0.731443 0.870534 1.63051 0.401964
191 1 13.1066 6.71533 0.99049 13.1066 6.71533 0.99049 0.994215 -1.90334 0.517369
193 1 12.9105 5.86674 16.7944 12.9105 5.86674 -0.00155479 0.695347 -1.59366 -1.44146
196 1 12.8709 7.2882 0.226136 12.8709 7.2882 0.226136 0.729532 0.500571 0.317481
194 1 13.768 7.51451 16.1853 13.768 7.51451 -0.610665 1.12379 -0.473153 0.125418
195 1 13.8412 6.49298 0.349207 13.8412 6.49298 0.349207 -1.45347 -0.417217 0.0276726
197 1 15.0578 6.43264 0.0128037 15.0578 6.43264 0.0128037 -0.384407 -0.691188 -0.435729
200 1 14.9738 7.14193 0.782475 14.9738 7.14193 0.782475 0.241825 0.682582 -0.0484694
198 1 16.1989 6.89835 16.4166 16.1989 6.89835 -0.37933 -0.659087 -0.50788 0.636278
199 1 15.8557 6.59435 0.772896 15.8557 6.59435 0.772896 -1.52158 0.670147 1.44183
201 1 0.153887 7.816 16.7637 0.153887 7.816 -0.0322374 0.756219 0.575283 2.45656
203 1 0.75762 8.29825 0.855234 0.75762 8.29825 0.855234 1.25782 -1.24569 0.934732
205 1 1.74767 8.79538 16.523 1.74767 8.79538 -0.272984 -0.261389 0.626519 -0.742808
207 1 2.5217 9.17572 0.613017 2.5217 9.17572 0.613017 -2.88442 0.790776 1.50394
209 1 2.81424 8.35485 0.308576 2.81424 8.35485 0.308576 -1.80971 -0.280835 -0.0510864
211 1 3.7186 8.16039 1.10923 3.7186 8.16039 1.10923 -2.37934 -1.05058 0.111683
213 1 5.74216 8.94705 0.188993 5.74216 8.94705 0.188993 0.244592 1.38174 0.430583
215 1 5.66454 8.49155 1.2213 5.66454 8.49155 1.2213 -2.70624 0.856798 0.065253
217 1 7.3213 8.5173 0.415774 7.3213 8.5173 0.415774 1.27163 1.69057 0.60184
219 1 8.21219 7.97614 0.634375 8.21219 7.97614 0.634375 -0.67401 0.648501 -0.0808333
221 1 9.132 8.67672 16.4643 9.132 8.67672 -0.331646 -0.0338144 -2.28973 -0.470657
223 1 10.0045 8.49048 0.782781 10.0045 8.49048 0.782781 1.20245 -0.484337 0.809596
225 1 10.2864 8.97025 16.6468 10.2864 8.97025 -0.1492 0.854659 -1.14291 -0.788102
227 1 10.8236 9.1407 0.836369 10.8236 9.1407 0.836369 0.610005 0.76172 0.426821
229 1 11.9808 7.66912 16.7305 11.9808 7.66912 -0.065444 -0.898738 -0.477724 -1.15739
231 1 12.661 9.58652 1.08908 12.661 9.58652 1.08908 -0.0763001 -0.330831 1.50721
233 1 13.0807 8.19368 16.7931 13.0807 8.19368 -0.00286638 0.264195 -2.91779 2.22745
235 1 13.99 8.17192 0.51754 13.99 8.17192 0.51754 0.95938 -2.05094 -0.0394671
237 1 14.8626 7.76252 0.024543 14.8626 7.76252 0.024543 0.505813 0.32575 -1.75032
239 1 15.8958 8.01176 0.211347 15.8958 8.01176 0.211347 -0.585715 -0.27651 -0.0443961
202 1 0.366075 10.0847 0.187534 0.366075 10.0847 0.187534 -0.834174 1.6602 0.490955
204 1 16.5297 8.91159 0.670113 -0.266273 8.91159 0.670113 1.19615 -0.860455 -1.02968
241 1 16.3565 9.92849 16.5121 -0.439501 9.92849 -0.283863 1.05954 -1.62594 0.815478
243 1 16.3276 10.0028 0.872559 -0.468322 10.0028 0.872559 -2.67159 1.23044 -1.84138
206 1 2.54317 9.66844 16.3442 2.54317 9.66844 -0.451796 0.010842 0.336086 -0.448213
208 1 1.27848 9.77345 0.507177 1.27848 9.77345 0.507177 -1.69707 0.114206 1.34909
245 1 1.53978 9.92871 16.2652 1.53978 9.92871 -0.530794 -1.22369 0.140244 -1.53909
247 1 2.41173 10.2557 0.34291 2.41173 10.2557 0.34291 -1.44203 0.508143 -0.630005
210 1 4.05213 9.44558 16.4482 4.05213 9.44558 -0.347801 0.217549 -0.74924 -1.12875
212 1 3.4795 9.4456 0.54009 3.4795 9.4456 0.54009 -0.744041 0.103185 -1.47079
249 1 3.87833 10.494 16.5056 3.87833 10.494 -0.290401 -0.543664 -0.190752 0.284518
251 1 4.67752 10.1973 0.299319 4.67752 10.1973 0.299319 0.716338 1.23201 -2.16643
214 1 5.84787 9.8429 0.99601 5.84787 9.8429 0.99601 0.336922 0.917112 1.24564
216 1 4.59365 9.26507 1.01444 4.59365 9.26507 1.01444 0.201654 0.164207 -0.428035
253 1 5.34117 9.86351 16.2241 5.34117 9.86351 -0.571899 -0.729905 -0.591668 -1.02468
255 1 5.40832 10.9588 0.567325 5.40832 10.9588 0.567325 -1.47629 1.20001 -1.86592
218 1 8.00803 9.16041 0.0530679 8.00803 9.16041 0.0530679 2.17062 1.95498 1.27274
220 1 6.62305 9.07477 0.962314 6.62305 9.07477 0.962314 -1.24647 0.137004 -0.630953
257 1 7.34641 10.1401 16.7445 7.34641 10.1401 -0.0514894 -0.877213 0.772327 -2.60775
259 1 7.22016 9.77002 0.87947 7.22016 9.77002 0.87947 -0.185032 0.383998 -0.919536
224 1 8.69605 9.17574 0.767394 8.69605 9.17574 0.767394 2.0669 -0.894323 0.827241
261 1 8.50139 10.229 0.273763 8.50139 10.229 0.273763 1.62416 -0.82327 0.484634
222 1 9.22389 10.0046 16.1639 9.22389 10.0046 -0.632019 -2.31878 1.7702 -0.789107
228 1 9.65827 9.55123 0.371843 9.65827 9.55123 0.371843 1.26808 -1.38488 2.48685
263 1 9.14385 10.5383 1.01247 9.14385 10.5383 1.01247 2.0621 -0.834162 -2.14872
265 1 10.3557 10.0341 16.1804 10.3557 10.0341 -0.615534 2.83466 -0.609932 0.463209
226 1 11.1411 9.46924 16.6294 11.1411 9.46924 -0.166538 -1.07878 -2.49583 0.848571
232 1 11.6481 9.5339 0.63288 11.6481 9.5339 0.63288 1.59435 -1.7271 -0.097925
267 1 10.652 10.3412 0.68668 10.652 10.3412 0.68668 -0.293207 -0.195217 2.50395
269 1 11.4898 10.5042 0.120187 11.4898 10.5042 0.120187 -0.201715 -2.56813 -0.515221
230 1 12.8307 9.17417 16.7028 12.8307 9.17417 -0.0931143 2.44117 -0.373083 0.936777
236 1 13.3958 8.90592 0.911315 13.3958 8.90592 0.911315 -1.05862 0.0835406 -2.27454
271 1 12.6996 10.6 1.27802 12.6996 10.6 1.27802 -2.26278 -0.771615 0.112121
273 1 12.7653 10.1418 0.222314 12.7653 10.1418 0.222314 -0.0204958 2.45964 2.38017
234 1 14.4037 9.48435 0.177496 14.4037 9.48435 0.177496 1.05118 -0.573573 -0.406692
240 1 15.5921 9.16381 0.465594 15.5921 9.16381 0.465594 -0.540084 -0.997368 1.00242
275 1 13.9633 9.95265 0.954118 13.9633 9.95265 0.954118 -1.55995 0.0372727 -0.248293
277 1 15.0808 10.1392 0.618881 15.0808 10.1392 0.618881 -1.2765 0.541896 0.761982
238 1 16.6339 8.8494 16.4353 16.6339 8.8494 -0.360676 -1.32772 -0.714662 -0.392068
279 1 15.8181 9.09197 1.44012 15.8181 9.09197 1.44012 -2.9159 -0.417928 2.80425
242 1 1.91236 11.1497 0.413228 1.91236 11.1497 0.413228 -0.0692575 -1.67869 -0.930548
244 1 16.4168 11.0988 1.01219 -0.37915 11.0988 1.01219 -0.677734 -0.0138342 0.96119
281 1 0.385986 12.0588 16.6425 0.385986 12.0588 -0.153427 -1.13089 0.497279 -0.570739
283 1 1.3737 12.0549 0.63849 1.3737 12.0549 0.63849 1.64972 0.266878 -0.556476
246 1 2.853 10.8321 16.4341 2.853 10.8321 -0.36189 1.09304 -2.18387 -0.805873
248 1 0.648968 10.9407 0.662827 0.648968 10.9407 0.662827 1.67163 0.491237 1.17752
285 1 2.44129 12.2353 16.6532 2.44129 12.2353 -0.142753 -0.328224 1.81756 1.49037
287 1 2.37182 12.1289 1.10615 2.37182 12.1289 1.10615 1.41935 0.0708318 -0.65593
250 1 4.80568 11.0063 16.3791 4.80568 11.0063 -0.41684 0.731572 1.69081 0.642362
252 1 3.01634 11.5971 0.399424 3.01634 11.5971 0.399424 -0.898974 0.604802 1.39257
289 1 3.47803 12.5775 0.216963 3.47803 12.5775 0.216963 0.0934727 0.724708 -0.013198
291 1 4.21607 12.0591 0.757068 4.21607 12.0591 0.757068 -0.2782 -0.113894 1.18282
254 1 6.77692 11.1589 16.7122 6.77692 11.1589 -0.0837894 1.86311 -0.365791 0.282608
256 1 5.24856 11.9342 0.225176 5.24856 11.9342 0.225176 1.70893 -0.890396 0.458764
293 1 5.18425 12.5574 16.3133 5.18425 12.5574 -0.482627 1.92245 2.7682 0.487609
295 1 6.00654 11.7154 0.975494 6.00654 11.7154 0.975494 -0.0375918 0.376249 -0.504262
258 1 7.72543 11.5946 16.5044 7.72543 11.5946 -0.291538 -2.24393 1.37183 1.31028
260 1 6.38733 10.5996 0.755101 6.38733 10.5996 0.755101 -2.29146 0.820391 -2.29041
297 1 7.01816 12.3575 16.5083 7.01816 12.3575 -0.287618 -0.469413 0.83763 0.223112
299 1 7.15448 11.7849 1.19759 7.15448 11.7849 1.19759 1.10374 -3.53797 0.582367
264 1 7.52369 10.8585 0.670199 7.52369 10.8585 0.670199 -0.309365 -1.79517 0.477721
301 1 7.94046 12.9206 0.0332749 7.94046 12.9206 0.0332749 -0.712594 2.47845 1.02642
262 1 8.73957 11.1843 16.6509 8.73957 11.1843 -0.145082 0.438692 1.8374 0.557716
268 1 9.85689 10.71 0.0207839 9.85689 10.71 0.0207839 1.1968 2.61586 1.80762
303 1 9.67894 11.8212 0.483068 9.67894 11.8212 0.483068 0.925783 0.57253 -1.10501
305 1 9.54069 12.7804 0.955609 9.54069 12.7804 0.955609 0.543433 -0.609471 -0.556349
266 1 10.566 11.2355 16.2864 10.566 11.2355 -0.509601 -0.691099 -0.747347 1.47566
272 1 11.5056 10.4112 1.34025 11.5056 10.4112 1.34025 1.43778 -0.022208 -0.0151411
307 1 10.5814 11.3935 0.583771 10.5814 11.3935 0.583771 -0.0988346 -0.0276203 0.980249
309 1 11.9129 11.4381 0.354377 11.9129 11.4381 0.354377 1.32885 0.193861 -1.37507
270 1 13.2915 11.0257 16.7515 13.2915 11.0257 -0.0444692 0.930893 -0.588239 -0.0622712
276 1 13.4883 11.2917 1.02962 13.4883 11.2917 1.02962 0.895674 -0.260916 -0.107752
311 1 12.4121 11.6691 1.33324 12.4121 11.6691 1.33324 0.0457936 -2.54045 -2.27513
313 1 13.7993 11.9582 0.0819711 13.7993 11.9582 0.0819711 0.0745883 -0.594984 1.87407
274 1 14.2992 10.9621 0.380855 14.2992 10.9621 0.380855 1.40638 -2.51786 0.966166
280 1 15.2666 11.229 1.24932 15.2666 11.229 1.24932 1.27927 0.0439616 0.797187
315 1 14.3005 11.8942 1.08979 14.3005 11.8942 1.08979 0.587428 0.694224 2.5187
317 1 15.098 11.6654 0.264128 15.098 11.6654 0.264128 -0.491337 -1.08032 -0.00650697
278 1 15.8391 10.802 0.244936 15.8391 10.802 0.244936 -0.58516 -1.22372 1.90505
319 1 15.9227 12.0596 0.862426 15.9227 12.0596 0.862426 1.1431 3.2995 0.620596
282 1 0.935697 12.9335 16.3379 0.935697 12.9335 -0.45805 -1.66444 0.360636 -0.405192
284 1 0.778348 13.0067 0.755927 0.778348 13.0067 0.755927 0.795801 -0.636159 -1.58062
321 1 0.367135 13.7182 0.266031 0.367135 13.7182 0.266031 1.57379 -0.925639 1.83153
323 1 1.75494 13.1007 0.934274 1.75494 13.1007 0.934274 0.71264 -0.721533 2.3674
286 1 3.62176 13.8438 16.6036 3.62176 13.8438 -0.192404 2.11926 0.500831 0.0203439
288 1 2.6772 12.908 0.600396 2.6772 12.908 0.600396 0.577452 0.98673 0.593751
325 1 1.76577 13.4313 16.6368 1.76577 13.4313 -0.159141 1.93413 0.708159 -0.500752
327 1 2.66871 13.9358 0.362116 2.66871 13.9358 0.362116 -0.355534 1.30034 -0.338382
290 1 4.3521 13.0853 0.0610798 4.3521 13.0853 0.0610798 0.885715 -1.27706 1.0464
292 1 3.34184 12.2476 1.24431 3.34184 12.2476 1.24431 -0.765823 1.26999 -0.134729
329 1 3.54361 13.3412 0.780012 3.54361 13.3412 0.780012 0.379661 0.361292 0.655648
331 1 4.46906 12.9142 1.41592 4.46906 12.9142 1.41592 1.24878 -2.53208 -0.308163
294 1 6.47811 12.6595 0.541451 6.47811 12.6595 0.541451 0.981056 2.78524 2.53322
296 1 5.34238 12.9373 0.848196 5.34238 12.9373 0.848196 -2.30256 -0.561337 0.0732434
333 1 6.22753 13.1895 16.1926 6.22753 13.1895 -0.603366 1.78382 2.21631 0.030564
335 1 6.44841 13.4776 1.061 6.44841 13.4776 1.061 1.15883 0.282708 -0.487072
298 1 7.4447 12.6941 1.019 7.4447 12.6941 1.019 -0.547793 -0.0704723 -0.522024
300 1 7.05019 13.1055 1.81588 7.05019 13.1055 1.81588 0.728715 1.60704 0.636205
337 1 6.89505 13.6862 16.7737 6.89505 13.6862 -0.0222225 0.766599 0.00524243 0.443964
339 1 7.61351 13.7343 0.781358 7.61351 13.7343 0.781358 0.946972 1.04385 2.0191
304 1 8.06398 12.0185 0.621928 8.06398 12.0185 0.621928 1.6475 -0.422083 2.00307
341 1 8.15818 13.9361 16.7408 8.15818 13.9361 -0.0551143 -0.792446 2.33023 -0.596293
302 1 9.00654 12.968 16.7153 9.00654 12.968 -0.0806723 -2.35731 1.75672 -1.65216
308 1 9.47097 13.7702 1.48402 9.47097 13.7702 1.48402 1.76173 -0.315435 0.793312
343 1 8.51786 13.1159 0.930523 8.51786 13.1159 0.930523 0.0585932 -0.858471 0.56421
345 1 9.96596 12.6476 0.121015 9.96596 12.6476 0.121015 0.077266 -0.0447923 1.73093
306 1 11.218 12.1468 0.144276 11.218 12.1468 0.144276 -0.935604 0.0889373 -1.91752
312 1 11.7154 12.4266 0.999074 11.7154 12.4266 0.999074 -1.09928 -1.18397 2.08748
347 1 10.8242 12.8034 0.742014 10.8242 12.8034 0.742014 -1.83483 3.00236 -1.01014
349 1 11.7734 12.9375 16.7773 11.7734 12.9375 -0.0186321 -1.80487 0.172856 0.922662
310 1 12.7546 12.1707 0.4387 12.7546 12.1707 0.4387 -0.708941 -2.11982 1.1626
316 1 13.5889 12.5814 0.913044 13.5889 12.5814 0.913044 2.12666 2.14335 -0.263348
351 1 12.7809 13.3759 0.83869 12.7809 13.3759 0.83869 0.179281 1.47362 -1.84886
353 1 13.1613 13.0003 16.6081 13.1613 13.0003 -0.187908 3.05045 0.685002 -0.179776
314 1 14.2709 12.8426 16.6611 14.2709 12.8426 -0.134892 1.08889 1.46169 0.268545
320 1 14.7319 12.732 0.832948 14.7319 12.732 0.832948 -1.44978 0.672605 -0.71604
355 1 14.4221 13.6321 0.375196 14.4221 13.6321 0.375196 2.09672 0.00631878 0.355176
357 1 15.4825 13.3941 0.544704 15.4825 13.3941 0.544704 1.52287 -0.164052 0.399188
318 1 16.5668 12.9495 0.622289 16.5668 12.9495 0.622289 -0.0243488 -1.52752 -2.70639
359 1 16.1828 13.7732 1.12187 16.1828 13.7732 1.12187 -1.01959 -1.05801 0.849962
322 1 1.33235 14.4023 16.1924 1.33235 14.4023 -0.60357 1.72468 2.50369 0.104794
324 1 0.429545 14.609 0.464325 0.429545 14.609 0.464325 0.0588064 -0.578202 1.58921
361 1 0.0281478 14.2819 16.1717 0.0281478 14.2819 -0.624303 -0.721157 -0.0756338 -0.871844
363 1 1.55614 15.4868 0.487853 1.55614 15.4868 0.487853 0.511887 -1.2551 0.103023
326 1 2.39207 14.4216 16.1557 2.39207 14.4216 -0.640305 -1.09195 1.5051 0.741539
328 1 1.57757 14.2083 0.487922 1.57757 14.2083 0.487922 -1.56103 0.0543758 0.0476943
365 1 2.22324 15.4056 16.0986 2.22324 15.4056 -0.69733 0.369433 0.835719 -1.79773
367 1 3.57475 14.4072 0.632867 3.57475 14.4072 0.632867 1.34464 -0.282096 2.53656
330 1 4.46247 13.8968 0.884933 4.46247 13.8968 0.884933 1.64654 -0.52348 -0.347381
332 1 3.45145 14.273 1.9057 3.45145 14.273 1.9057 -0.257313 -0.990269 -0.065639
369 1 3.98534 14.8522 16.7429 3.98534 14.8522 -0.0530374 0.713435 -0.24445 1.23028
371 1 4.18388 14.9351 1.62533 4.18388 14.9351 1.62533 -1.2531 2.56276 -1.75071
334 1 5.94214 14.7335 16.5695 5.94214 14.7335 -0.226477 1.51943 0.3349 -0.0972003
336 1 5.60126 13.7472 0.151661 5.60126 13.7472 0.151661 -0.0407324 -1.9933 1.87905
373 1 4.87509 14.8157 0.288384 4.87509 14.8157 0.288384 0.413402 0.864634 1.65407
375 1 5.80118 15.2079 0.62324 5.80118 15.2079 0.62324 2.14438 -0.296987 -0.504556
338 1 7.80083 14.8283 16.3878 7.80083 14.8283 -0.408189 0.177671 -0.490084 0.120032
340 1 6.78858 14.6285 0.493427 6.78858 14.6285 0.493427 -0.378648 0.800416 -1.20839
377 1 7.7366 15.6976 0.279727 7.7366 15.6976 0.279727 1.56772 -0.123125 -0.106882
379 1 7.7631 14.7909 0.994251 7.7631 14.7909 0.994251 -2.05517 0.0852723 -0.15034
344 1 8.66891 14.1199 0.911205 8.66891 14.1199 0.911205 0.290012 -1.10365 0.306094