ITEM: TIMESTEP
500
ITEM: NUMBER OF ATOMS
4000
ITEM: BOX BOUNDS pp pp pp
0.0000000000000000e+00 1.6795961913825074e+01
0.0000000000000000e+00 1.6795961913825074e+01
0.0000000000000000e+00 1.6795961913825074e+01
ITEM: ATOMS id type x y z xu yu zu vx vy vz
1 1 15.9513 16.1667 16.3559 -0.844635 -0.629252 -0.440093 -2.64065 2.4323 -0.300667
2 1 16.5266 0.144743 16.7604 -0.269379 0.144743 -0.035585 0.378906 0.402958 1.17813
3 1 0.738994 16.6495 16.7473 0.738994 -0.1465 -0.048637 1.03827 0.468411 -2.83614
4 1 15.9501 0.701092 0.741407 -0.845897 0.701092 0.741407 1.19304 0.516764 -0.54284
5 1 1.54646 16.0588 0.36209 1.54646 -0.737169 0.36209 1.40843 0.150869 -0.240627
6 1 2.46135 1.37454 0.214677 2.46135 1.37454 0.214677 -1.65452 1.49081 -1.00111
7 1 2.45506 0.414288 16.7634 2.45506 0.414288 -0.0325327 -0.251603 -0.213841 -0.908169
8 1 1.43768 0.547606 0.0194241 1.43768 0.547606 0.0194241 -1.02097 -0.344031 1.38736
9 1 5.14595 0.420654 16.4469 5.14595 0.420654 -0.349101 0.305348 0.721865 -0.12015
10 1 4.20127 2.19096 15.4681 4.20127 2.19096 -1.32785 -0.542116 -1.7165 -1.25873
11 1 5.38026 1.08473 0.385632 5.38026 1.08473 0.385632 -0.342756 1.88885 -0.239307
12 1 2.91118 1.5076 1.12598 2.91118 1.5076 1.12598 1.57671 0.255408 1.86029
13 1 5.61292 16.6296 15.656 5.61292 -0.166373 -1.13993 0.149687 -1.73088 0.292077
14 1 6.9616 0.899143 0.736397 6.9616 0.899143 0.736397 0.291049 -1.9896 -0.373521
15 1 5.1802 16.352 0.281548 5.1802 -0.443961 0.281548 1.1746 -0.341792 -1.46218
16 1 6.36485 1.16309 0.010926 6.36485 1.16309 0.010926 -1.35805 -1.44649 1.03634
17 1 5.97456 0.587555 1.01345 5.97456 0.587555 1.01345 -1.39847 0.345523 -2.454
18 1 8.20365 0.630693 1.57826 8.20365 0.630693 1.57826 1.00496 0.363761 1.16829
19 1 9.78722 0.917831 1.74237 9.78722 0.917831 1.74237 3.24499 0.719478 2.46178
20 1 7.1224 1.79551 1.16776 7.1224 1.79551 1.16776 -1.68069 -0.794654 0.0365277
21 1 8.88262 1.24079 0.379959 8.88262 1.24079 0.379959 2.37655 1.1949 1.05291
24 1 9.38716 1.84726 1.58973 9.38716 1.84726 1.58973 -0.689879 0.0927645 -0.127654
22 1 8.35706 2.09228 1.71652 8.35706 2.09228 1.71652 1.21624 2.66186 0.773722
23 1 10.3002 1.42405 16.7316 10.3002 1.42405 -0.064335 0.836644 1.64859 -0.201766
25 1 10.4506 0.380631 0.226213 10.4506 0.380631 0.226213 -0.364222 0.734975 0.677219
28 1 10.2947 2.34065 0.841724 10.2947 2.34065 0.841724 0.747233 -0.555523 -0.912486
26 1 11.3981 0.847587 0.492653 11.3981 0.847587 0.492653 1.19717 -1.86984 -2.05894
27 1 10.7502 0.575311 1.2456 10.7502 0.575311 1.2456 -0.691151 1.8171 -3.52203
29 1 12.3327 16.513 0.207872 12.3327 -0.282979 0.207872 -2.02176 -1.37793 -0.605125
32 1 11.6559 0.981319 1.58459 11.6559 0.981319 1.58459 -2.62283 0.894182 0.76126
30 1 13.1798 0.993028 0.215154 13.1798 0.993028 0.215154 0.38858 0.126305 -2.59891
31 1 12.5488 0.514903 0.873306 12.5488 0.514903 0.873306 -2.82141 0.304798 1.7747
33 1 13.143 16.0148 16.6669 13.143 -0.781123 -0.129058 0.732451 0.899113 0.430929
36 1 13.62 1.19268 1.28428 13.62 1.19268 1.28428 -2.16019 -0.873089 -2.0606
34 1 13.7147 1.03276 16.1722 13.7147 1.03276 -0.623747 -1.28007 1.58813 -1.25324
35 1 13.7869 16.7089 0.226904 13.7869 -0.0870728 0.226904 -1.26343 -1.66801 -1.12111
37 1 14.627 0.385893 16.293 14.627 0.385893 -0.502995 -2.02346 0.545973 3.05187
40 1 15.5309 0.425748 16.5625 15.5309 0.425748 -0.233454 -1.45302 0.303584 -0.0806942
38 1 16.1656 0.774479 15.603 16.1656 0.774479 -1.19291 0.728947 -0.290002 0.742437
39 1 16.1263 16.3926 0.706906 16.1263 -0.403358 0.706906 1.34848 -0.621948 -1.65717
41 1 0.386939 0.990254 0.220828 0.386939 0.990254 0.220828 0.750116 -0.000119312 -2.60591
42 1 2.07751 2.84564 0.98617 2.07751 2.84564 0.98617 -0.421953 -0.422272 0.219095
43 1 0.905056 0.774879 1.05216 0.905056 0.774879 1.05216 0.0261488 -2.25458 -1.50648
44 1 0.46352 2.17581 0.66284 0.46352 2.17581 0.66284 1.29988 -0.73078 -0.869441
45 1 1.59384 1.99318 0.74797 1.59384 1.99318 0.74797 0.871696 -0.924413 1.69689
46 1 3.31805 2.3425 15.9092 3.31805 2.3425 -0.886747 0.611774 1.71357 -1.88069
47 1 2.47312 0.466126 0.920248 2.47312 0.466126 0.920248 -0.0306332 -0.678642 0.901736
48 1 1.82659 2.55845 1.96546 1.82659 2.55845 1.96546 -0.270204 -0.357081 -0.259013
49 1 3.82871 0.954935 0.420852 3.82871 0.954935 0.420852 0.816422 -0.158818 0.406957
50 1 3.72961 3.12792 0.457992 3.72961 3.12792 0.457992 2.20185 -0.219648 -1.07529
51 1 5.5275 2.2219 1.02686 5.5275 2.2219 1.02686 -0.781543 -0.215167 -1.98473
52 1 2.84367 2.63741 0.109388 2.84367 2.63741 0.109388 0.585674 -0.564754 -1.39125
53 1 5.5097 2.01324 16.7541 5.5097 2.01324 -0.0418934 0.313607 0.765403 0.151575
54 1 6.40863 2.00297 0.537026 6.40863 2.00297 0.537026 -0.130844 2.61528 -0.848336
55 1 6.19616 1.70514 1.70839 6.19616 1.70514 1.70839 -0.244458 -0.562166 -0.0756582
56 1 5.69468 3.17982 1.04143 5.69468 3.17982 1.04143 -0.121259 0.58035 -0.649175
57 1 7.33846 0.955392 16.3352 7.33846 0.955392 -0.460723 1.46926 -1.67664 0.136187
58 1 8.19252 2.42099 16.5351 8.19252 2.42099 -0.26083 -0.129083 -1.03908 -0.369474
59 1 7.6834 2.67361 1.27667 7.6834 2.67361 1.27667 -0.142986 -0.716973 0.656688
60 1 6.56825 2.74461 1.25251 6.56825 2.74461 1.25251 0.549915 -1.75038 -0.743624
61 1 7.92553 1.15704 0.779383 7.92553 1.15704 0.779383 2.06732 1.17356 0.698377
64 1 8.52093 3.28353 1.0034 8.52093 3.28353 1.0034 -1.5333 1.13747 2.02701
62 1 8.88956 2.29675 0.759256 8.88956 2.29675 0.759256 0.512996 0.83443 1.14088
63 1 9.51048 3.0118 1.19649 9.51048 3.0118 1.19649 0.859252 -1.68887 1.07168
65 1 10.0903 2.66633 16.5527 10.0903 2.66633 -0.243285 1.27438 -0.402016 -1.79413
68 1 8.21163 4.36701 0.477335 8.21163 4.36701 0.477335 0.62811 -0.518479 -1.63847
66 1 10.0945 3.68664 0.125961 10.0945 3.68664 0.125961 -1.21068 2.22147 -0.150394
67 1 10.9093 2.02282 1.7338 10.9093 2.02282 1.7338 -1.34163 1.22008 1.52888
69 1 11.3756 1.98273 0.575073 11.3756 1.98273 0.575073 -1.71716 1.07076 0.22402
72 1 11.1012 3.01944 0.541522 11.1012 3.01944 0.541522 -0.83158 0.358399 -4.234
70 1 12.4749 2.494 0.453328 12.4749 2.494 0.453328 -2.01277 2.38927 0.703362
71 1 12.1478 1.47349 0.428701 12.1478 1.47349 0.428701 1.47293 -1.21442 -3.31238
73 1 14.2379 1.29475 0.212078 14.2379 1.29475 0.212078 2.58589 0.663805 -1.6398
76 1 14.1916 2.06616 1.17089 14.1916 2.06616 1.17089 -1.53681 1.08344 -0.0815886
74 1 15.3946 1.84196 1.22431 15.3946 1.84196 1.22431 2.01415 2.21667 0.627413
75 1 14.6849 1.12822 1.09643 14.6849 1.12822 1.09643 -0.253019 0.827993 0.653948
77 1 15.2515 1.39918 0.104305 15.2515 1.39918 0.104305 1.32569 1.54497 0.92056
80 1 15.9292 2.72933 1.47509 15.9292 2.72933 1.47509 -1.02965 1.05417 0.0286459
78 1 0.41402 1.77001 16.3828 17.21 1.77001 -0.413176 0.596509 0.393695 0.713671
79 1 16.2207 1.22327 16.6211 16.2207 1.22327 -0.174887 -0.900923 -1.25817 -0.751741
81 1 1.1252 2.66594 15.986 1.1252 2.66594 -0.810006 2.47947 -0.255091 -1.82536
82 1 1.2531 3.8783 1.63407 1.2531 3.8783 1.63407 0.205728 -0.156354 2.67418
83 1 0.539972 3.07313 0.0228969 0.539972 3.07313 0.0228969 0.160365 -1.13119 -0.391081
84 1 0.351632 3.62883 1.73428 0.351632 3.62883 1.73428 1.88464 -0.251787 -0.289819
85 1 1.49679 3.59531 0.238629 1.49679 3.59531 0.238629 -0.934993 -0.900599 2.35451
86 1 2.35054 4.53378 0.161324 2.35054 4.53378 0.161324 -1.42685 1.21056 1.18233
87 1 2.88717 3.60729 16.6093 2.88717 3.60729 -0.186627 -0.701475 0.786162 -1.29082
88 1 2.20348 3.44358 1.80407 2.20348 3.44358 1.80407 0.907925 -0.165721 0.830645
89 1 4.00645 3.20161 16.1908 4.00645 3.20161 -0.60517 0.31318 0.839866 0.414788
90 1 4.63997 3.85302 15.8317 4.63997 3.85302 -0.964306 -0.0228982 1.72193 2.03284
91 1 4.09813 4.10461 0.152502 4.09813 4.10461 0.152502 -2.02616 -1.46832 -0.178734
92 1 3.59554 5.06561 0.215693 3.59554 5.06561 0.215693 -0.983595 2.17271 -1.5815
93 1 6.07113 2.76642 16.785 6.07113 2.76642 -0.0109857 -0.269475 0.418483 -0.533275
94 1 5.19797 4.9438 15.8388 5.19797 4.9438 -0.957208 0.788296 0.90259 0.486451
95 1 7.22672 2.88799 0.175948 7.22672 2.88799 0.175948 1.58057 -1.44589 -1.36635
96 1 5.21613 3.47693 0.263183 5.21613 3.47693 0.263183 -0.912811 1.97606 -1.83562
97 1 6.72109 3.81389 16.2819 6.72109 3.81389 -0.51408 -1.16283 1.9478 -1.61368
98 1 8.33902 4.03388 15.7688 8.33902 4.03388 -1.02713 1.16208 1.72186 0.380164
99 1 8.13511 3.46485 16.5978 8.13511 3.46485 -0.198152 1.54102 -0.342875 -2.06239
100 1 7.15754 4.53327 0.213701 7.15754 4.53327 0.213701 -0.372659 1.08362 -0.532904
101 1 9.14373 3.21547 16.092 9.14373 3.21547 -0.703976 -0.497514 -1.16025 -1.37842
104 1 7.95888 5.19283 16.2391 7.95888 5.19283 -0.5569 1.42044 0.876938 2.19
102 1 9.40159 4.20023 16.0446 9.40159 4.20023 -0.751398 0.240754 2.64792 1.41295
103 1 7.27196 3.56457 0.951945 7.27196 3.56457 0.951945 -1.3107 1.18466 -0.439909
105 1 10.2565 4.67717 0.513433 10.2565 4.67717 0.513433 0.312639 2.44492 1.09249
108 1 8.84036 4.87315 16.6127 8.84036 4.87315 -0.183261 0.0623294 1.66973 -0.276102
106 1 11.2296 4.52381 1.39798 11.2296 4.52381 1.39798 0.755412 0.737536 0.892225
107 1 11.167 4.06513 0.598452 11.167 4.06513 0.598452 -1.53586 1.46497 -0.0550014
109 1 13.3228 2.78135 1.16341 13.3228 2.78135 1.16341 1.99785 -0.49762 -0.933381
112 1 12.1402 4.22855 1.71599 12.1402 4.22855 1.71599 -0.992362 -1.25064 1.02468
110 1 11.9466 3.16034 1.05098 11.9466 3.16034 1.05098 -3.44891 1.20021 0.601072
111 1 11.6349 3.36892 2.53142 11.6349 3.36892 2.53142 1.78116 -0.469475 1.09316
113 1 13.3024 4.17495 1.85309 13.3024 4.17495 1.85309 0.158432 0.366737 1.71988
116 1 13.4638 3.83326 2.75345 13.4638 3.83326 2.75345 -0.0818333 -1.45128 1.37
114 1 14.6355 3.22351 0.544017 14.6355 3.22351 0.544017 0.341973 0.815396 -1.89344
115 1 14.5552 2.36978 2.44408 14.5552 2.36978 2.44408 -1.63347 1.30276 -0.670488
117 1 15.0192 2.39979 16.7692 15.0192 2.39979 -0.0267687 2.55995 -1.01991 0.774448
120 1 15.8237 3.13455 15.8416 15.8237 3.13455 -0.954396 -0.202183 -1.79035 -1.57868
118 1 16.2325 4.04991 16.6733 16.2325 4.04991 -0.12264 -0.100028 0.114321 -0.797618
119 1 16.1713 1.96759 0.498824 16.1713 1.96759 0.498824 0.0828024 -0.831475 -0.263134
121 1 0.444864 3.94058 0.621438 0.444864 3.94058 0.621438 2.21124 -0.76325 -1.38958
122 1 1.35558 4.58554 0.640625 1.35558 4.58554 0.640625 0.87897 -1.38411 -0.748681
123 1 16.7561 4.56702 1.49363 -0.0398285 4.56702 1.49363 -2.00299 -0.782761 -0.886271
124 1 16.1911 4.58978 0.682421 -0.60482 4.58978 0.682421 -1.90051 -0.440222 1.03346
125 1 2.13347 4.07665 0.981152 2.13347 4.07665 0.981152 -0.0661856 -1.04098 -2.20126
126 1 3.13175 6.29289 0.256749 3.13175 6.29289 0.256749 0.0853776 -0.194866 -2.62356
127 1 3.05393 4.62613 1.04353 3.05393 4.62613 1.04353 0.831231 -0.369428 2.54648
128 1 1.19092 4.95312 1.65568 1.19092 4.95312 1.65568 1.88779 -0.430174 -2.60332
129 1 3.87284 5.08523 16.0176 3.87284 5.08523 -0.778327 -1.4954 0.845725 0.755083
130 1 4.69283 6.77809 0.225953 4.69283 6.77809 0.225953 2.41448 -0.700921 0.262028
131 1 4.0692 6.06409 0.583737 4.0692 6.06409 0.583737 -1.78992 0.786549 0.59593
132 1 3.25368 5.39564 1.80191 3.25368 5.39564 1.80191 0.917644 -3.89941 1.17515
133 1 4.56319 4.90861 16.7491 4.56319 4.90861 -0.0468326 -0.40085 1.11862 0.344696
134 1 5.28448 6.4395 16.2934 5.28448 6.4395 -0.502528 1.42048 1.28317 0.421532
135 1 5.88631 6.53397 0.284189 5.88631 6.53397 0.284189 -0.47437 0.166871 0.764852
136 1 5.14703 5.95321 0.72128 5.14703 5.95321 0.72128 0.244274 0.200289 -0.472572
137 1 6.07464 4.47377 16.7933 6.07464 4.47377 -0.0026208 0.0612949 -1.71301 -0.930889
138 1 7.50728 6.16973 16.3631 7.50728 6.16973 -0.432817 -2.46124 -0.0250313 -1.92066
139 1 7.59621 5.51849 0.299238 7.59621 5.51849 0.299238 1.30409 -0.807118 -1.32616
140 1 6.89657 5.17563 16.1582 6.89657 5.17563 -0.637786 -1.27068 -2.53953 -0.039819
141 1 8.51576 5.42023 0.804998 8.51576 5.42023 0.804998 1.59973 -0.546519 -1.48609
144 1 7.99647 6.20449 15.3719 7.99647 6.20449 -1.42409 -1.8038 3.20742 -1.41192
142 1 9.73558 7.43219 16.6973 9.73558 7.43219 -0.0987059 1.29348 -1.03806 1.18758
143 1 8.31062 6.2904 1.47203 8.31062 6.2904 1.47203 0.100816 -0.483692 2.58577
145 1 10.4186 4.07817 15.4463 10.4186 4.07817 -1.34968 -0.728533 0.700395 -0.0439904
148 1 9.66215 6.44664 0.401612 9.66215 6.44664 0.401612 -1.57455 1.31908 -2.78138
146 1 11.0301 6.08955 0.73746 11.0301 6.08955 0.73746 -1.92739 -1.261 2.66642
147 1 8.56309 6.05719 16.4346 8.56309 6.05719 -0.36135 0.786967 -1.2459 -2.67724
149 1 11.3206 5.14794 0.261959 11.3206 5.14794 0.261959 2.41219 -0.534934 2.28993
152 1 12.3354 4.87976 1.00443 12.3354 4.87976 1.00443 0.75434 -3.10232 1.03164
150 1 11.5756 6.87337 0.333071 11.5756 6.87337 0.333071 0.804608 -0.185444 -1.07868
151 1 12.0568 4.32021 16.7197 12.0568 4.32021 -0.0762227 1.58099 0.0731825 -0.735602
153 1 13.9341 3.59245 1.23467 13.9341 3.59245 1.23467 1.32653 -0.374707 1.42881
156 1 13.7417 5.21614 1.5196 13.7417 5.21614 1.5196 0.886851 0.0861855 0.546038
154 1 13.5626 4.93626 0.186068 13.5626 4.93626 0.186068 0.0755293 -0.69346 1.6002
155 1 14.1853 4.03008 0.0729166 14.1853 4.03008 0.0729166 -2.25661 0.33766 0.195459
157 1 14.5577 4.82966 16.3361 14.5577 4.82966 -0.459882 0.0534401 -0.156597 -0.483694
160 1 14.8868 5.32339 0.441138 14.8868 5.32339 0.441138 0.412941 0.0398182 -0.260788
158 1 16.0356 5.85184 0.316645 16.0356 5.85184 0.316645 2.20816 -0.804174 1.4123
159 1 15.7266 4.87097 16.4971 15.7266 4.87097 -0.298823 1.52305 1.56092 -2.61918
161 1 0.0449918 6.98282 0.576338 0.0449918 6.98282 0.576338 -1.23297 1.01945 -1.50101
162 1 0.855169 5.57923 0.409032 0.855169 5.57923 0.409032 1.13178 -0.0400264 -0.0548183
163 1 0.675452 7.86149 2.15758 0.675452 7.86149 2.15758 -0.880345 0.305048 2.12534
164 1 16.6818 8.05261 1.34442 -0.114178 8.05261 1.34442 1.07246 -1.33444 0.517765
165 1 2.25616 5.75099 0.0383664 2.25616 5.75099 0.0383664 9.46039e-05 0.0324021 -0.939345
166 1 1.04533 7.06987 0.351254 1.04533 7.06987 0.351254 -0.93653 1.25002 1.17657
167 1 2.33539 5.72185 1.13793 2.33539 5.72185 1.13793 0.471586 1.39635 -0.46134
168 1 0.662434 7.36327 1.27355 0.662434 7.36327 1.27355 -0.32745 -2.93545 1.74682
169 1 3.40493 6.30384 1.37554 3.40493 6.30384 1.37554 -0.851433 0.863058 1.72238
170 1 2.39187 6.90018 16.5008 2.39187 6.90018 -0.295195 -1.29217 -0.464271 0.645548
171 1 4.83907 6.74873 1.20015 4.83907 6.74873 1.20015 -0.459337 -1.81374 0.851308
172 1 1.71661 6.81537 1.24767 1.71661 6.81537 1.24767 -0.717279 -0.52837 1.23817
173 1 3.72851 7.26285 0.600005 3.72851 7.26285 0.600005 -0.0463429 -0.777731 -0.613305
174 1 5.91334 7.52713 0.169769 5.91334 7.52713 0.169769 0.933617 -0.297951 -0.411672
175 1 6.11681 7.12257 1.13264 6.11681 7.12257 1.13264 2.08181 0.951008 -0.191526
176 1 4.35285 7.92596 0.264577 4.35285 7.92596 0.264577 -0.515539 2.57925 -0.521849
177 1 6.83517 6.5691 0.704849 6.83517 6.5691 0.704849 -0.0669616 -0.437713 3.05565
178 1 7.79159 7.11164 16.5155 7.79159 7.11164 -0.280502 -1.50945 -1.31524 -2.08826
179 1 7.88329 6.412 0.506467 7.88329 6.412 0.506467 -1.34675 -0.267314 0.360249
180 1 6.83247 7.67694 0.758024 6.83247 7.67694 0.758024 -1.23559 -1.32929 0.606723
181 1 8.96269 6.9239 16.2593 8.96269 6.9239 -0.536685 0.217996 0.476697 2.84215
184 1 9.05024 7.98659 0.906439 9.05024 7.98659 0.906439 0.128472 0.337164 2.39338
182 1 10.3996 8.20397 16.5574 10.3996 8.20397 -0.238554 0.814851 0.969047 0.728353
183 1 8.7666 6.956 0.563669 8.7666 6.956 0.563669 -1.23343 -1.34705 0.348101
185 1 11.1106 6.08344 16.4793 11.1106 6.08344 -0.316707 0.749152 1.19415 -0.284199
188 1 11.1906 7.18721 1.24255 11.1906 7.18721 1.24255 0.852214 -2.47745 1.12219
186 1 11.3275 7.7747 0.220258 11.3275 7.7747 0.220258 0.498957 0.0689876 -0.404395
187 1 10.6546 6.9242 0.0775404 10.6546 6.9242 0.0775404 0.35166 0.576015 -0.246705
189 1 12.1484 6.35846 16.1915 12.1484 6.35846 -0.60451 0.669763 -1.35249 2.05156
192 1 12.2899 7.92279 0.692109 12.2899 7.92279 0.692109 0.434913 2.42958 0.633444
190 1 14.1691 6.88583 16.5417 14.1691 6.88583 -0.254243 -0.245263 -1.41477 1.64941
191 1 13.7106 6.33106 1.485 13.7106 6.33106 1.485 -0.541917 -0.407768 -0.505006
193 1 13.05 6.10294 16.4693 13.05 6.10294 -0.326616 -0.160474 -0.354329 0.14807
196 1 13.0475 5.6195 0.753122 13.0475 5.6195 0.753122 0.586681 -2.3327 -0.594756
194 1 14.768 8.04197 15.7803 14.768 8.04197 -1.0157 0.168371 -0.785432 0.196737
195 1 14.0127 5.88852 0.732477 14.0127 5.88852 0.732477 -2.7995 -0.870183 0.517902
197 1 15.3435 6.55857 0.447786 15.3435 6.55857 0.447786 -0.353825 -3.07191 -1.51649
200 1 15.4284 7.45904 0.992201 15.4284 7.45904 0.992201 0.492999 -0.0947936 0.222674
198 1 16.3329 6.7878 15.9771 16.3329 6.7878 -0.818855 -0.904859 0.784474 1.57687
199 1 16.1118 6.61066 1.22734 16.1118 6.61066 1.22734 0.813709 0.76256 0.779216
201 1 0.0677181 8.51331 0.446124 0.0677181 8.51331 0.446124 1.79688 0.160919 -2.00153
203 1 1.16718 8.76954 0.369913 1.16718 8.76954 0.369913 1.81065 -0.0541755 1.41983
205 1 2.7437 9.05689 0.0913384 2.7437 9.05689 0.0913384 0.499699 -2.16248 3.10233
207 1 3.24331 9.32528 1.03799 3.24331 9.32528 1.03799 0.680236 -0.0877674 1.53772
209 1 3.15843 7.82848 16.7529 3.15843 7.82848 -0.043093 -0.499265 -1.52397 -1.07241
211 1 3.33987 8.18567 0.939222 3.33987 8.18567 0.939222 -0.210205 0.245072 -1.56487
213 1 5.09078 8.46367 0.203039 5.09078 8.46367 0.203039 -0.278593 -3.05635 0.101461
215 1 6.01706 8.27685 1.0298 6.01706 8.27685 1.0298 -0.220827 0.104454 -0.457083
217 1 7.81122 8.71397 0.36772 7.81122 8.71397 0.36772 -1.00334 -0.817929 1.25186
219 1 7.83214 7.53831 0.666878 7.83214 7.53831 0.666878 -0.85849 -2.28871 -0.847856
221 1 9.41668 8.73347 0.285084 9.41668 8.73347 0.285084 1.62257 -0.826743 -0.92238
223 1 10.3525 8.86302 0.879658 10.3525 8.86302 0.879658 -1.23023 0.728261 2.47199
225 1 10.1164 8.99642 16.0738 10.1164 8.99642 -0.722148 -0.897746 1.79457 0.936551
227 1 10.9551 9.68771 0.935695 10.9551 9.68771 0.935695 1.12392 0.223361 0.631181
229 1 12.5327 7.15849 0.0521031 12.5327 7.15849 0.0521031 -0.553891 0.321153 -0.123369
231 1 13.0552 9.55759 1.22071 13.0552 9.55759 1.22071 -1.08659 -0.333415 0.00672981
233 1 13.3241 7.79806 0.460951 13.3241 7.79806 0.460951 -1.30162 1.02915 -0.373794
235 1 13.2659 6.52132 0.523812 13.2659 6.52132 0.523812 -1.14177 -0.371415 -0.892259
237 1 14.0774 8.07723 16.5176 14.0774 8.07723 -0.278339 -0.46699 0.119884 -0.325386
239 1 16.041 7.46028 0.12522 16.041 7.46028 0.12522 0.398115 -0.740879 0.681492
202 1 0.736119 10.7412 0.514468 0.736119 10.7412 0.514468 2.29324 0.792306 -0.794551
204 1 15.655 8.26787 16.4993 -1.14096 8.26787 -0.296697 -0.669832 -0.574541 1.96917
241 1 0.402198 9.73849 0.0405824 0.402198 9.73849 0.0405824 2.4611 0.775921 0.371875
243 1 15.8721 9.09917 0.309263 -0.9239 9.09917 0.309263 1.52268 1.19214 -0.613849
206 1 2.42091 10.18 16.3127 2.42091 10.18 -0.483288 -0.956683 -2.11078 -0.719492
208 1 1.64122 10.5662 0.709863 1.64122 10.5662 0.709863 -1.68056 1.53584 -3.14969
245 1 1.83308 8.61038 15.9623 1.83308 8.61038 -0.833614 -1.65834 1.99721 2.63358
247 1 2.96286 10.3679 0.732223 2.96286 10.3679 0.732223 0.86423 -1.49597 0.499638
210 1 4.2158 9.37732 16.2439 4.2158 9.37732 -0.552102 -0.538815 1.1063 1.33743
212 1 4.05049 8.92046 0.446177 4.05049 8.92046 0.446177 2.06922 0.525523 0.245427
249 1 3.92277 10.4153 0.742683 3.92277 10.4153 0.742683 0.702112 -0.381057 2.76648
251 1 5.08382 10.0982 0.440913 5.08382 10.0982 0.440913 -0.259177 0.000825577 -0.672692
214 1 5.70012 9.11873 0.834698 5.70012 9.11873 0.834698 -1.10543 -1.43675 0.913231
216 1 4.90353 8.3586 1.35305 4.90353 8.3586 1.35305 0.122908 -0.781262 -0.602872
253 1 5.75495 10.6238 16.398 5.75495 10.6238 -0.397956 1.945 0.113888 -0.823591
255 1 5.35743 11.1155 0.373887 5.35743 11.1155 0.373887 -0.792547 0.701155 0.686992
218 1 8.25825 9.62178 0.427768 8.25825 9.62178 0.427768 0.633933 2.13999 1.03569
220 1 6.90314 8.85535 0.600089 6.90314 8.85535 0.600089 -1.15266 0.913255 1.54577
257 1 7.79678 10.4926 0.0604558 7.79678 10.4926 0.0604558 0.227446 2.54558 -1.61893
259 1 8.01801 9.65231 1.51594 8.01801 9.65231 1.51594 -1.30926 0.773524 0.615957
224 1 9.67602 9.58594 1.05193 9.67602 9.58594 1.05193 -2.42184 -0.106142 -0.776066
261 1 9.13547 10.1668 0.158738 9.13547 10.1668 0.158738 -1.19108 1.22302 -1.58016
222 1 9.31401 9.62905 16.026 9.31401 9.62905 -0.76996 0.453866 -2.43704 2.21664
228 1 9.99476 9.78764 16.7194 9.99476 9.78764 -0.0765132 0.551131 -0.261781 1.74115
263 1 9.06295 11.3731 1.66682 9.06295 11.3731 1.66682 -0.532467 -1.63319 1.00842
265 1 10.8369 10.7643 15.7768 10.8369 10.7643 -1.01913 0.869547 0.21755 -1.04232
226 1 10.8899 9.04398 16.7377 10.8899 9.04398 -0.0582824 0.276708 1.43256 -0.363819
232 1 12.2877 9.11924 0.808146 12.2877 9.11924 0.808146 -0.456915 0.365094 0.346559
267 1 11.1936 11.1356 0.631483 11.1936 11.1356 0.631483 0.355682 0.858854 -0.679511
269 1 10.9545 10.1595 16.7045 10.9545 10.1595 -0.091483 -0.49284 2.61456 -0.994517
230 1 11.9803 9.26241 16.4498 11.9803 9.26241 -0.346157 -1.16452 0.184387 1.92039
236 1 13.6795 8.72383 1.05627 13.6795 8.72383 1.05627 1.97305 0.0275411 0.72098
271 1 12.2978 10.4969 1.47862 12.2978 10.4969 1.47862 -0.923064 -1.74936 -0.0851748
273 1 12.6572 9.79484 0.070331 12.6572 9.79484 0.070331 0.229119 -0.163086 -1.01506
234 1 13.9139 9.14258 0.0503804 13.9139 9.14258 0.0503804 -1.76299 -0.993856 -1.01287
240 1 14.9006 9.63338 0.565983 14.9006 9.63338 0.565983 0.143403 1.59048 -0.981743
275 1 13.6412 10.7667 0.938219 13.6412 10.7667 0.938219 -0.222617 0.0479807 -1.99529
277 1 14.7076 8.9176 1.44705 14.7076 8.9176 1.44705 0.3814 -1.21152 0.381584
238 1 0.696883 8.77676 16.1921 17.4928 8.77676 -0.603841 -0.852576 1.46464 -1.83127
279 1 16.5033 9.23751 1.13231 16.5033 9.23751 1.13231 -2.76655 0.000987699 -1.48766
242 1 2.00385 11.1189 16.7007 2.00385 11.1189 -0.0952801 0.974094 1.00948 -0.87298
244 1 16.6926 10.1339 0.993772 -0.103339 10.1339 0.993772 -0.430741 -1.78908 -0.742015
281 1 0.813911 11.5145 15.9633 0.813911 11.5145 -0.83268 -0.0631588 0.282161 1.93132
283 1 1.42718 11.9155 16.7343 1.42718 11.9155 -0.0616715 -1.36832 1.36981 -1.49876
246 1 3.66261 10.8773 15.7303 3.66261 10.8773 -1.06563 0.143798 -1.10533 0.639915
248 1 1.13905 11.4078 1.04903 1.13905 11.4078 1.04903 -1.33395 -2.64128 -1.7288
285 1 2.73816 12.9467 0.561458 2.73816 12.9467 0.561458 0.211076 -0.651391 2.01139
287 1 1.92199 12.27 0.748619 1.92199 12.27 0.748619 0.086673 -0.656939 -0.69197
250 1 5.29292 11.4177 15.9122 5.29292 11.4177 -0.88372 -1.51885 0.181105 -0.0535671
252 1 3.2753 11.222 16.6385 3.2753 11.222 -0.157414 1.2754 -1.79742 -0.763808
289 1 3.80763 12.3058 0.152793 3.80763 12.3058 0.152793 0.883054 0.449174 0.789194
291 1 4.76677 12.2445 0.273573 4.76677 12.2445 0.273573 -2.01298 1.35659 0.450659
254 1 6.54912 12.19 0.680139 6.54912 12.19 0.680139 0.937869 0.2585 -0.447833
256 1 5.79007 12.31 16.7814 5.79007 12.31 -0.0145989 0.213711 1.44533 0.803233
293 1 5.76899 13.3703 16.2791 5.76899 13.3703 -0.516903 0.408964 -0.191438 -3.48961
295 1 6.40398 11.1692 0.97108 6.40398 11.1692 0.97108 -1.24687 0.426389 -0.63289
258 1 7.9554 11.8268 0.015959 7.9554 11.8268 0.015959 -0.502049 -0.495453 0.530299
260 1 7.1496 9.9195 1.01725 7.1496 9.9195 1.01725 0.845819 -0.0852132 -1.80516
297 1 6.81946 13.1055 15.7829 6.81946 13.1055 -1.01305 -1.1962 -0.168559 1.11513
299 1 8.06441 11.6126 2.41408 8.06441 11.6126 2.41408 -0.764055 0.865351 0.441082
264 1 7.14087 11.1796 0.323543 7.14087 11.1796 0.323543 0.185794 1.17727 1.10804
301 1 7.3987 12.9318 0.472655 7.3987 12.9318 0.472655 0.332383 -0.56359 0.644857
262 1 9.09269 11.2495 0.616189 9.09269 11.2495 0.616189 0.164764 -0.339384 -0.12889
268 1 9.91298 10.8276 16.7286 9.91298 10.8276 -0.0673907 0.019386 -0.95097 -2.69144
303 1 9.55284 12.1517 0.434277 9.55284 12.1517 0.434277 2.31638 -1.90611 -2.52257
305 1 9.40024 13.0211 0.773291 9.40024 13.0211 0.773291 -0.347963 1.70797 -0.381808
266 1 10.2791 11.7688 16.7005 10.2791 11.7688 -0.0954873 2.58155 2.01347 0.4619
272 1 11.834 10.1625 0.589181 11.834 10.1625 0.589181 0.115781 -1.21396 -0.694106
307 1 11.9289 11.8626 0.644604 11.9289 11.8626 0.644604 0.88457 0.0253092 0.775627
309 1 12.4106 10.9623 0.613986 12.4106 10.9623 0.613986 -1.04153 0.841921 0.550503
270 1 12.8835 10.9091 16.4388 12.8835 10.9091 -0.357177 0.480294 0.890009 1.90295
276 1 13.8199 11.5815 0.300855 13.8199 11.5815 0.300855 -0.690654 -0.586408 -0.876844
311 1 12.1302 11.6075 1.76094 12.1302 11.6075 1.76094 -1.19517 0.737057 -0.357574
313 1 14.2156 12.5693 1.03872 14.2156 12.5693 1.03872 1.2186 0.480891 0.541482
274 1 14.3398 10.7669 16.3157 14.3398 10.7669 -0.480305 0.591091 0.552364 -0.801558
280 1 16.3292 11.1672 1.62992 16.3292 11.1672 1.62992 -0.557894 0.138155 -0.283555
315 1 14.3506 11.6236 1.42547 14.3506 11.6236 1.42547 0.653687 2.00471 -0.165996
317 1 15.2437 11.9305 0.647978 15.2437 11.9305 0.647978 0.261658 -1.76697 1.04783
278 1 15.7461 10.2541 0.582793 15.7461 10.2541 0.582793 -0.112715 -0.236514 2.46322
319 1 16.2139 12.0218 1.18892 16.2139 12.0218 1.18892 -0.15851 0.569952 -0.158793
282 1 0.936234 13.3661 16.3834 0.936234 13.3661 -0.412547 -0.238128 -0.415379 -0.23777
284 1 0.921065 12.6707 0.562229 0.921065 12.6707 0.562229 2.20488 -0.436479 0.957058
321 1 1.20549 13.9732 0.350945 1.20549 13.9732 0.350945 0.872489 0.962122 0.0339674
323 1 1.7595 13.3752 0.952564 1.7595 13.3752 0.952564 0.637276 -0.730059 1.75127
286 1 3.79269 14.1384 16.7487 3.79269 14.1384 -0.0472147 -0.376295 0.043315 1.63674
288 1 2.59377 13.7883 1.17917 2.59377 13.7883 1.17917 0.119871 0.0846977 -0.919043
325 1 2.27956 13.5499 16.6819 2.27956 13.5499 -0.114013 0.811059 -0.633576 1.10138
327 1 2.79775 14.7021 1.50934 2.79775 14.7021 1.50934 -0.497029 -1.2902 -1.35012
290 1 4.53136 13.3222 16.5146 4.53136 13.3222 -0.281337 -2.52726 0.249038 0.902403
292 1 4.02908 11.8936 1.2146 4.02908 11.8936 1.2146 2.1879 -1.40707 -0.218205
329 1 3.59604 13.325 0.647348 3.59604 13.325 0.647348 -2.26333 -0.116533 -0.651428
331 1 4.81312 13.0571 0.805775 4.81312 13.0571 0.805775 -0.618685 0.134371 -0.500039
294 1 6.66998 12.7028 2.00294 6.66998 12.7028 2.00294 -0.674458 -1.03326 2.33702
296 1 5.80015 12.9925 1.17899 5.80015 12.9925 1.17899 1.04364 -0.780208 -1.01444
333 1 6.77547 14.1855 15.6745 6.77547 14.1855 -1.12147 0.824609 2.26848 -0.0484964
335 1 6.79283 14.5902 1.23001 6.79283 14.5902 1.23001 1.80267 0.190333 0.41695
298 1 7.74434 12.4374 1.40538 7.74434 12.4374 1.40538 0.751801 -0.284661 -0.314779
300 1 7.6206 12.5655 2.42034 7.6206 12.5655 2.42034 0.602447 0.863281 1.87274
337 1 6.77581 13.9339 16.6448 6.77581 13.9339 -0.151172 1.34052 -1.49724 -0.423186
339 1 7.02605 13.6193 1.06175 7.02605 13.6193 1.06175 0.506847 0.576362 0.668735
304 1 8.6866 12.1458 1.02965 8.6866 12.1458 1.02965 -0.725089 1.07996 -1.22747
341 1 8.00173 14.4229 15.9788 8.00173 14.4229 -0.817122 1.10355 -0.0726397 1.42354
302 1 8.80099 12.595 16.6887 8.80099 12.595 -0.107251 -0.246369 -1.34795 0.193978
308 1 9.06035 14.432 1.08758 9.06035 14.432 1.08758 -0.525708 -1.45901 0.676912
343 1 7.92942 13.4467 1.66832 7.92942 13.4467 1.66832 -1.39173 -1.51149 0.589919
345 1 9.62962 13.6849 0.0100599 9.62962 13.6849 0.0100599 -2.31301 1.3178 -0.973403
306 1 10.7008 12.8138 16.3113 10.7008 12.8138 -0.484657 0.731863 -3.13766 -0.0598135
312 1 12.4189 12.7208 1.20471 12.4189 12.7208 1.20471 2.1778 -1.55144 -1.63991
347 1 10.0228 13.6971 1.13054 10.0228 13.6971 1.13054 -1.37419 0.963271 0.754239
349 1 10.7907 13.5682 0.307295 10.7907 13.5682 0.307295 -2.55381 -0.254341 1.52446
310 1 12.2384 12.2458 16.5604 12.2384 12.2458 -0.235608 -1.2861 2.04423 -1.36296
316 1 13.271 13.1532 1.64803 13.271 13.1532 1.64803 0.570263 2.82336 -0.489938
351 1 13.4777 12.6393 0.249368 13.4777 12.6393 0.249368 1.6064 -1.23094 -0.790535
353 1 13.7088 13.328 16.1056 13.7088 13.328 -0.690316 0.3999 0.451226 -0.3095
314 1 14.5071 12.7931 16.4451 14.5071 12.7931 -0.350845 -0.77761 -2.61803 0.878331
320 1 15.0233 13.027 0.547797 15.0233 13.027 0.547797 0.372548 2.23706 -0.0444475
355 1 14.0077 13.6723 0.216243 14.0077 13.6723 0.216243 -0.561529 -0.525154 1.16202
357 1 15.5765 13.2855 16.5086 15.5765 13.2855 -0.287384 0.359588 -1.90256 0.0555188
318 1 16.7107 12.7552 0.225382 16.7107 12.7552 0.225382 2.64816 -0.906283 1.95317
359 1 16.1587 13.9223 1.84277 16.1587 13.9223 1.84277 0.664169 0.842864 0.538157
322 1 1.86736 14.8213 0.161705 1.86736 14.8213 0.161705 0.640489 0.535472 1.82347
324 1 0.363458 14.3825 1.38924 0.363458 14.3825 1.38924 0.211156 -0.111078 0.314509
361 1 1.17149 14.4768 16.1896 1.17149 14.4768 -0.6064 1.21146 1.40126 -1.74817
363 1 2.09091 15.5981 1.09473 2.09091 15.5981 1.09473 1.22302 0.448767 -2.55883
326 1 3.03134 14.6019 15.8564 3.03134 14.6019 -0.939514 0.372307 -0.7927 -0.642581
328 1 1.72326 14.6356 1.25703 1.72326 14.6356 1.25703 0.485925 0.876946 -1.51672
365 1 2.29828 15.3855 16.1088 2.29828 15.3855 -0.687205 2.3768 -1.21472 -0.151377
367 1 3.79291 14.4823 0.949153 3.79291 14.4823 0.949153 1.03644 -1.38622 -0.699844
330 1 6.26267 13.2953 0.37343 6.26267 13.2953 0.37343 0.308587 0.446262 -1.31319
332 1 4.0642 13.7683 1.61903 4.0642 13.7683 1.61903 -2.07563 2.56578 0.138025
369 1 3.54933 15.486 0.0643854 3.54933 15.486 0.0643854 0.90678 -0.639383 -0.283869
371 1 4.67485 14.5844 1.57648 4.67485 14.5844 1.57648 -0.232174 2.87224 -0.11513
334 1 6.02549 14.8858 16.2584 6.02549 14.8858 -0.537596 -1.71335 -1.05528 -0.0365843
336 1 5.65001 14.1954 0.240087 5.65001 14.1954 0.240087 -0.557939 -2.24664 1.20106
373 1 4.79127 14.0338 0.618045 4.79127 14.0338 0.618045 -0.0958061 0.874187 -1.45113
375 1 6.04809 15.4181 0.633509 6.04809 15.4181 0.633509 1.05989 -0.191689 0.739028
338 1 7.76789 14.4372 0.466455 7.76789 14.4372 0.466455 2.63877 -1.85204 0.739383
340 1 6.98267 15.0951 16.3149 6.98267 15.0951 -0.481105 0.802121 1.27927 -1.03444
377 1 8.00646 16.0334 1.52995 8.00646 16.0334 1.52995 0.447749 -1.43304 -0.669214
379 1 8.49186 15.2275 1.12714 8.49186 15.2275 1.12714 0.488605 1.08622 -0.290553
344 1 8.47387 13.2139 0.855399 8.47387 13.2139 0.855399 1.64732 0.858021 -1.74686
381 1 8.5243 13.7393 16.7599 8.5243 13.7393 -0.0360739 0.0293874 -0.15301 -1.8375