ITEM: TIMESTEP
450
ITEM: NUMBER OF ATOMS
4000
ITEM: BOX BOUNDS pp pp pp
0.0000000000000000e+00 1.6795961913825074e+01
0.0000000000000000e+00 1.6795961913825074e+01
0.0000000000000000e+00 1.6795961913825074e+01
ITEM: ATOMS id type x y z xu yu zu vx vy vz
1 1 16.0133 16.3015 16.2358 -0.782631 -0.49448 -0.560163 0.767883 -1.63636 0.720229
2 1 16.7237 0.00605874 -0.0213078 -0.0722609 0.00605874 -0.0213078 -0.861891 0.488786 -1.77042
3 1 0.958129 16.7767 0.444886 0.958129 -0.0192439 0.444886 0.838554 0.0889095 1.75103
4 1 15.9034 0.89276 0.776902 -0.892589 0.89276 0.776902 -0.214874 0.570101 0.510676
5 1 1.28711 15.6634 0.270666 1.28711 -1.13256 0.270666 1.04331 1.86279 -0.351209
6 1 2.51181 1.29414 0.225143 2.51181 1.29414 0.225143 -0.152612 -0.0199834 -1.29879
7 1 2.95661 0.338545 16.7011 2.95661 0.338545 -0.0948415 -1.67797 -0.142977 -1.53458
8 1 1.47892 0.677644 16.7333 1.47892 0.677644 -0.062654 -0.452254 0.270341 1.00254
9 1 4.79804 0.165157 -0.0175574 4.79804 0.165157 -0.0175574 1.32335 0.0953826 -2.06092
10 1 4.35592 2.20122 15.9343 4.35592 2.20122 -0.861673 1.49318 1.65564 -0.0263951
11 1 5.2073 1.00104 0.453776 5.2073 1.00104 0.453776 0.774896 -0.100794 0.335873
12 1 2.80242 1.34844 1.43173 2.80242 1.34844 1.43173 0.428189 1.37244 -1.2247
13 1 5.36331 16.5124 15.9343 5.36331 -0.283521 -0.861613 3.40063 1.29097 -1.12223
14 1 6.57738 0.773401 0.896406 6.57738 0.773401 0.896406 1.41923 1.64049 0.0718241
15 1 5.47723 16.3299 0.324004 5.47723 -0.466057 0.324004 1.30944 0.470792 -1.66394
16 1 6.29186 1.25817 16.6556 6.29186 1.25817 -0.140361 -0.272145 -1.01419 -1.42191
17 1 5.66141 0.301084 1.1337 5.66141 0.301084 1.1337 0.48671 -0.287186 1.36669
18 1 7.82813 0.671371 1.42314 7.82813 0.671371 1.42314 1.6907 -1.57406 0.492069
19 1 9.20676 0.941594 1.54868 9.20676 0.941594 1.54868 1.29844 1.72785 0.092363
20 1 7.12531 1.51242 1.43717 7.12531 1.51242 1.43717 0.313063 2.02786 -0.415346
21 1 8.64034 0.991223 0.438747 8.64034 0.991223 0.438747 1.18691 0.272277 -0.581114
24 1 9.4593 1.90444 1.30533 9.4593 1.90444 1.30533 1.27154 -1.31888 2.06263
22 1 8.31156 1.55657 1.3167 8.31156 1.55657 1.3167 -0.411286 2.97979 1.70637
23 1 10.3465 1.14845 16.521 10.3465 1.14845 -0.274965 -0.881115 1.60837 -2.62522
25 1 10.5806 16.8385 0.0879021 10.5806 0.0425514 0.0879021 1.16745 2.65089 0.240404
28 1 10.3422 2.30933 1.05533 10.3422 2.30933 1.05533 -1.07179 -0.395127 -0.78044
26 1 11.1638 0.871061 0.391034 11.1638 0.871061 0.391034 -0.176835 1.76 0.208309
27 1 10.9454 0.241806 1.19414 10.9454 0.241806 1.19414 -1.40334 -0.305508 -0.857194
29 1 12.1932 16.6306 0.0880496 12.1932 -0.165409 0.0880496 1.98464 -0.767265 -1.49862
32 1 11.793 0.892153 1.68284 11.793 0.892153 1.68284 0.0657632 1.66944 -2.39566
30 1 13.1313 0.821942 0.0964992 13.1313 0.821942 0.0964992 -0.496145 0.468195 -1.23161
31 1 12.7307 0.3111 1.17737 12.7307 0.3111 1.17737 -0.161334 -0.266441 0.375259
33 1 13.199 16.1287 16.5229 13.199 -0.667307 -0.27307 -0.357843 1.78721 1.71648
36 1 13.6161 0.951975 1.2785 13.6161 0.951975 1.2785 1.47279 -0.472644 1.0454
34 1 13.77 0.695084 15.9487 13.77 0.695084 -0.847256 0.59452 0.804447 2.70669
35 1 14.2095 0.402528 0.199441 14.2095 0.402528 0.199441 -2.50286 -1.20006 -0.527182
37 1 14.923 0.572683 15.9006 14.923 0.572683 -0.895326 -1.72682 0.539702 1.51857
40 1 15.6967 0.448821 16.546 15.6967 0.448821 -0.249931 -0.940274 1.10714 -1.16438
38 1 15.9893 0.996385 15.8013 15.9893 0.996385 -0.994661 -0.923957 0.842442 -1.10755
39 1 16.1292 16.2879 0.911273 16.1292 -0.508102 0.911273 -0.706146 -1.3587 -0.443146
41 1 0.348341 1.03652 0.257773 0.348341 1.03652 0.257773 -0.143567 -1.10677 -0.489325
42 1 2.26845 3.11068 0.669013 2.26845 3.11068 0.669013 -2.00874 0.290799 -1.27664
43 1 1.37107 0.94235 0.937621 1.37107 0.94235 0.937621 0.213264 -0.238387 -2.08487
44 1 0.449474 2.32525 0.507347 0.449474 2.32525 0.507347 0.360194 -0.970265 0.431678
45 1 1.40675 1.84636 0.539876 1.40675 1.84636 0.539876 -1.57599 0.138202 2.1188
46 1 3.4254 2.01709 16.3501 3.4254 2.01709 -0.44589 -0.697472 2.26069 -0.762459
47 1 2.20108 0.51178 0.717715 2.20108 0.51178 0.717715 -1.9769 2.82589 1.94953
48 1 1.76224 2.47781 1.81869 1.76224 2.47781 1.81869 -0.341518 0.234914 0.6757
49 1 3.58519 0.943731 0.371978 3.58519 0.943731 0.371978 0.588931 -1.20417 -0.0615166
50 1 3.70764 2.98944 0.52246 3.70764 2.98944 0.52246 -0.211029 1.86192 0.85877
51 1 5.45413 2.23405 0.958728 5.45413 2.23405 0.958728 -0.591063 -0.522461 0.240685
52 1 2.98212 2.19083 0.475182 2.98212 2.19083 0.475182 -0.5711 2.5352 -1.70387
53 1 5.41787 1.94919 16.7665 5.41787 1.94919 -0.0294926 -0.66817 0.742523 1.02131
54 1 6.46433 1.98387 0.585623 6.46433 1.98387 0.585623 -0.710405 -1.37535 1.16488
55 1 6.15152 2.17667 1.77481 6.15152 2.17667 1.77481 2.411 -2.1841 -0.549455
56 1 5.65344 3.10549 1.47836 5.65344 3.10549 1.47836 -2.26894 0.224161 -0.307459
57 1 7.33389 0.983675 16.1554 7.33389 0.983675 -0.640581 0.433503 -0.138143 1.06316
58 1 8.22489 2.60396 16.5859 8.22489 2.60396 -0.210052 0.53383 -0.517137 0.142983
59 1 7.93368 2.45236 0.802942 7.93368 2.45236 0.802942 -1.16484 1.11837 0.54842
60 1 6.76511 2.82079 1.28151 6.76511 2.82079 1.28151 1.3676 0.223743 0.018959
61 1 7.59844 1.21863 0.450159 7.59844 1.21863 0.450159 0.925842 0.929381 0.00988829
64 1 8.60588 3.38172 0.733771 8.60588 3.38172 0.733771 0.241621 -0.375675 1.64337
62 1 8.77957 2.01621 0.522579 8.77957 2.01621 0.522579 -1.20132 0.899071 1.54131
63 1 9.41676 2.98945 1.18201 9.41676 2.98945 1.18201 0.186714 0.707126 1.46731
65 1 10.1352 2.51954 0.0402614 10.1352 2.51954 0.0402614 -0.530439 1.18319 0.338919
68 1 8.15496 4.44907 0.853243 8.15496 4.44907 0.853243 0.141153 3.08019 -0.909747
66 1 10.4433 3.49522 0.432929 10.4433 3.49522 0.432929 0.951612 0.25833 1.27042
67 1 10.9542 1.6796 1.57825 10.9542 1.6796 1.57825 0.411815 0.77251 0.070763
69 1 11.0099 2.03566 0.375079 11.0099 2.03566 0.375079 0.621879 0.699518 2.12755
72 1 11.1728 3.00915 0.813116 11.1728 3.00915 0.813116 0.135342 -0.763863 -0.556924
70 1 12.7706 2.36694 0.0277433 12.7706 2.36694 0.0277433 -2.07382 0.0271688 0.011534
71 1 12.3004 1.22845 0.741279 12.3004 1.22845 0.741279 1.12459 0.153746 0.895174
73 1 14.1212 1.45117 0.412367 14.1212 1.45117 0.412367 1.31758 -0.525245 1.53187
76 1 14.4245 2.16432 1.33862 14.4245 2.16432 1.33862 0.31426 -0.647119 -0.347118
74 1 15.4525 1.7349 1.09644 15.4525 1.7349 1.09644 -0.847005 -1.52465 0.452944
75 1 14.8638 0.913977 1.05916 14.8638 0.913977 1.05916 -1.42399 0.586589 -0.878299
77 1 15.0548 1.24716 16.7698 15.0548 1.24716 -0.0261866 -1.16002 -0.507988 0.245653
80 1 15.9412 2.54209 1.61015 15.9412 2.54209 1.61015 0.173955 -0.59372 1.01578
78 1 0.164802 1.86189 16.4375 16.9608 1.86189 -0.358446 2.45242 0.136965 -0.27766
79 1 16.1905 1.2844 16.7063 16.1905 1.2844 -0.0897052 2.22258 -0.109122 -0.976738
81 1 0.784637 2.71698 16.2408 0.784637 2.71698 -0.555177 0.400844 -0.383397 1.22909
82 1 1.05923 4.03147 1.3761 1.05923 4.03147 1.3761 -0.757659 -0.917095 1.2632
83 1 0.518598 3.32682 0.147443 0.518598 3.32682 0.147443 -1.08609 -2.06826 -2.18572
84 1 0.107685 3.57996 1.71756 0.107685 3.57996 1.71756 0.810451 -0.670894 -0.000531959
85 1 1.71218 3.72895 0.069005 1.71218 3.72895 0.069005 0.908266 -0.542165 1.24822
86 1 2.56178 4.49555 16.5726 2.56178 4.49555 -0.223374 0.832016 0.871215 0.203796
87 1 3.00833 3.42402 16.6868 3.00833 3.42402 -0.109197 1.61589 1.13728 -1.4151
88 1 2.26065 3.34446 1.66385 2.26065 3.34446 1.66385 0.339649 -0.265509 0.718907
89 1 3.97626 3.1571 16.1416 3.97626 3.1571 -0.654388 -1.31009 0.963851 -0.228317
90 1 4.5556 4.1323 16.0365 4.5556 4.1323 -0.759435 0.10565 1.51427 1.52388
91 1 4.4834 3.86727 0.255851 4.4834 3.86727 0.255851 -1.96885 0.464963 -0.292138
92 1 3.7972 4.66983 0.215481 3.7972 4.66983 0.215481 1.46741 2.89106 -0.475602
93 1 5.98629 2.90632 -0.0227046 5.98629 2.90632 -0.0227046 1.07637 -0.919899 -1.41196
94 1 5.22254 4.92038 15.7753 5.22254 4.92038 -1.02065 1.5219 1.49327 -0.796464
95 1 7.05236 2.90416 0.19419 7.05236 2.90416 0.19419 1.1339 -0.0279885 0.0546816
96 1 5.33161 3.43331 0.564775 5.33161 3.43331 0.564775 -1.1899 0.0382483 -0.401154
97 1 7.00472 3.60521 16.2542 7.00472 3.60521 -0.541812 -0.445821 -1.20653 0.686909
98 1 8.10638 3.80572 15.8813 8.10638 3.80572 -0.914642 -0.560402 -0.884529 -1.61014
99 1 7.87091 3.58214 0.0923175 7.87091 3.58214 0.0923175 -1.25524 0.603783 1.5317
100 1 7.16391 4.31147 0.303913 7.16391 4.31147 0.303913 0.958712 -0.164652 -0.550871
101 1 8.96273 3.09296 16.1365 8.96273 3.09296 -0.65945 1.2671 -0.770653 -0.425646
104 1 8.1228 4.85816 16.2046 8.1228 4.85816 -0.591362 -1.03248 2.16226 0.911537
102 1 9.60647 4.10806 15.8912 9.60647 4.10806 -0.904773 -0.724116 0.313702 -0.90994
103 1 7.5124 3.51968 1.22774 7.5124 3.51968 1.22774 -0.123487 1.81566 -1.67341
105 1 10.1937 4.51833 0.436739 10.1937 4.51833 0.436739 2.67382 2.77991 -1.99931
108 1 8.97143 4.46355 16.6345 8.97143 4.46355 -0.161432 -1.71868 1.66044 -0.443126
106 1 11.0306 4.19383 1.43257 11.0306 4.19383 1.43257 -0.677711 2.0919 1.0211
107 1 11.3642 3.89799 0.269639 11.3642 3.89799 0.269639 0.228029 -0.470704 -0.180515
109 1 13.4781 3.04161 1.11035 13.4781 3.04161 1.11035 -1.53274 -0.584487 0.740693
112 1 12.1517 4.46515 1.69087 12.1517 4.46515 1.69087 0.228867 -2.36913 1.56253
110 1 12.1633 3.16235 0.960864 12.1633 3.16235 0.960864 -1.90464 -2.8226 0.485261
111 1 11.6325 3.61215 2.13633 11.6325 3.61215 2.13633 2.01119 1.9285 1.13422
113 1 13.2569 4.0466 1.55772 13.2569 4.0466 1.55772 0.265754 1.3778 -0.459649
116 1 13.6398 3.88251 2.57492 13.6398 3.88251 2.57492 0.192518 1.07102 0.771788
114 1 14.6251 3.0533 0.663546 14.6251 3.0533 0.663546 0.863324 -0.881989 0.325137
115 1 14.9016 2.12019 2.14541 14.9016 2.12019 2.14541 0.225213 -2.20034 0.264572
117 1 14.9444 2.43445 16.5964 14.9444 2.43445 -0.199597 -0.407603 1.08172 -1.37273
120 1 15.6795 3.24712 16.2464 15.6795 3.24712 -0.549556 0.0993426 0.916112 -2.16288
118 1 16.3887 3.75327 0.0806547 16.3887 3.75327 0.0806547 -0.680412 1.59191 -2.50846
119 1 16.1633 2.12546 0.399207 16.1633 2.12546 0.399207 -1.01307 0.280803 0.204422
121 1 0.250291 4.30906 0.766141 0.250291 4.30906 0.766141 0.807069 0.225748 1.22645
122 1 1.05471 5.1647 0.784484 1.05471 5.1647 0.784484 1.7579 -2.48181 1.11307
123 1 16.5454 4.77963 1.9351 -0.250551 4.77963 1.9351 3.1257 -1.53726 -1.30816
124 1 16.1525 4.78434 0.782493 -0.643446 4.78434 0.782493 1.11442 -1.80987 0.350101
125 1 1.89633 4.46212 0.702293 1.89633 4.46212 0.702293 0.415325 -2.96817 0.900945
126 1 3.07154 5.79711 0.60219 3.07154 5.79711 0.60219 -0.494812 0.505804 -1.77652
127 1 2.99447 4.9048 0.77275 2.99447 4.9048 0.77275 -0.336916 2.95012 0.228014
128 1 1.11071 5.0464 1.72563 1.11071 5.0464 1.72563 -0.82846 0.422691 1.28256
129 1 3.90002 5.03215 16.0549 3.90002 5.03215 -0.741021 0.768687 -1.91459 -0.870496
130 1 4.41883 6.63614 0.0108828 4.41883 6.63614 0.0108828 1.381 -0.0169683 0.812216
131 1 4.15537 5.79207 0.440679 4.15537 5.79207 0.440679 -0.429252 1.46033 -1.01551
132 1 3.32134 5.59261 1.68909 3.32134 5.59261 1.68909 -1.32848 -1.26059 0.284281
133 1 4.82021 4.83809 16.6798 4.82021 4.83809 -0.116161 -1.52595 -1.34974 -1.71093
134 1 5.40858 6.72412 16.1331 5.40858 6.72412 -0.662871 -0.0879716 -0.290244 1.72597
135 1 5.86434 6.50851 0.343931 5.86434 6.50851 0.343931 0.778339 1.00881 -0.627054
136 1 4.96924 5.85631 1.16364 4.96924 5.85631 1.16364 1.89849 -0.865134 -0.355453
137 1 6.20629 4.78134 0.104565 6.20629 4.78134 0.104565 1.40771 0.889727 0.638973
138 1 7.45643 6.09088 16.4861 7.45643 6.09088 -0.309866 -0.0791251 -0.0126219 -1.47664
139 1 7.56614 5.18795 0.105279 7.56614 5.18795 0.105279 -0.651278 0.598611 1.25001
140 1 6.6554 5.52772 16.3259 6.6554 5.52772 -0.470091 1.15783 -2.01864 -1.3522
141 1 8.52657 5.43924 0.648765 8.52657 5.43924 0.648765 -1.41726 -0.768912 1.79535
144 1 8.4847 5.73441 15.8267 8.4847 5.73441 -0.969215 -3.0364 0.761486 -2.03464
142 1 9.55722 7.3454 16.5092 9.55722 7.3454 -0.286788 -0.994176 1.30245 -0.194698
143 1 8.75898 6.11906 1.33854 8.75898 6.11906 1.33854 -3.09849 0.405414 -0.173354
145 1 10.4933 3.67297 15.3081 10.4933 3.67297 -1.4879 0.118279 2.96215 1.54392
148 1 9.85751 6.70147 0.608396 9.85751 6.70147 0.608396 0.0802208 1.69961 2.40925
146 1 10.7758 6.33409 0.890628 10.7758 6.33409 0.890628 1.48939 -1.14313 0.198074
147 1 9.03875 5.93276 16.6943 9.03875 5.93276 -0.101678 -2.25686 0.316836 2.86316
149 1 11.1538 5.18297 0.389031 11.1538 5.18297 0.389031 -0.155709 -0.512731 0.436753
152 1 12.0742 5.20303 1.02764 12.0742 5.20303 1.02764 -1.57801 -1.20619 -3.4563
150 1 11.5978 6.84971 0.28841 11.5978 6.84971 0.28841 0.914081 1.86399 -0.433384
151 1 12.0416 4.49679 16.6811 12.0416 4.49679 -0.114905 -0.689793 -2.02813 0.213807
153 1 13.7945 3.84981 0.657715 13.7945 3.84981 0.657715 -2.08103 -3.55658 2.2445
156 1 13.4986 5.29963 1.27363 13.4986 5.29963 1.27363 0.738452 -1.56821 -1.20244
154 1 13.9885 4.89837 0.504885 13.9885 4.89837 0.504885 -3.68054 1.85869 -0.868378
155 1 14.6809 3.9941 0.216886 14.6809 3.9941 0.216886 -2.62879 -0.927906 -1.41807
157 1 14.4947 4.84833 16.3394 14.4947 4.84833 -0.456534 0.0822547 -0.663206 0.897997
160 1 14.9984 5.45197 0.699537 14.9984 5.45197 0.699537 -0.287038 -0.979306 -1.77338
158 1 15.8609 5.66459 0.12967 15.8609 5.66459 0.12967 -1.33583 2.18474 -0.953778
159 1 15.6367 4.31101 16.62 15.6367 4.31101 -0.175992 0.834254 1.90729 1.48933
161 1 0.183905 6.90498 0.816147 0.183905 6.90498 0.816147 -0.953499 -1.97518 -0.95143
162 1 1.38805 6.08123 0.651801 1.38805 6.08123 0.651801 1.25099 -2.33157 1.92429
163 1 0.560195 7.55623 2.27065 0.560195 7.55623 2.27065 2.08114 -1.39213 -0.088927
164 1 16.4972 7.88132 1.41238 -0.298735 7.88132 1.41238 -0.332345 3.3332 1.17868
165 1 2.06746 5.64828 16.6768 2.06746 5.64828 -0.119125 -0.766406 -1.09499 1.5404
166 1 1.14946 6.97228 0.13694 1.14946 6.97228 0.13694 -2.58421 0.0626539 1.50035
167 1 2.17692 5.71179 1.13684 2.17692 5.71179 1.13684 -1.96011 0.621358 -2.28886
168 1 0.971762 7.69674 0.741828 0.971762 7.69674 0.741828 -0.583167 0.598568 -0.0063287
169 1 3.33481 6.62169 1.6003 3.33481 6.62169 1.6003 1.86375 -2.6563 -1.43504
170 1 2.56751 7.01685 16.6248 2.56751 7.01685 -0.17114 0.483354 0.291947 -0.0588134
171 1 4.84486 6.92717 1.04896 4.84486 6.92717 1.04896 -0.458166 0.00770394 0.686441
172 1 1.79123 6.71581 1.35294 1.79123 6.71581 1.35294 -0.308128 0.278735 -2.10508
173 1 3.67597 7.16623 0.645586 3.67597 7.16623 0.645586 -0.880691 0.0142712 -0.793867
174 1 5.65997 7.86538 0.117018 5.65997 7.86538 0.117018 1.37765 -2.15279 0.379001
175 1 5.91761 7.25484 0.962916 5.91761 7.25484 0.962916 -0.0501702 -1.5806 -0.54809
176 1 4.54928 8.06104 0.29165 4.54928 8.06104 0.29165 -0.68768 -1.49865 -0.347598
177 1 6.83378 6.69323 0.381129 6.83378 6.69323 0.381129 1.08088 -1.19881 1.01502
178 1 7.61992 7.36351 16.5389 7.61992 7.36351 -0.257098 -0.0905923 0.541777 -0.395441
179 1 7.88522 6.5017 0.606923 7.88522 6.5017 0.606923 1.50737 1.08662 -0.964361
180 1 6.89739 7.61089 0.975808 6.89739 7.61089 0.975808 0.519429 2.0369 0.119428
181 1 9.21831 6.82672 15.785 9.21831 6.82672 -1.01095 0.438642 -0.41391 -0.0090696
184 1 9.31415 8.10487 0.949698 9.31415 8.10487 0.949698 -0.987427 -2.12007 -1.07794
182 1 10.3299 8.08086 16.4799 10.3299 8.08086 -0.316028 -0.955619 -2.07326 0.573908
183 1 8.89185 6.87757 0.431825 8.89185 6.87757 0.431825 -0.915615 -0.437486 -0.394702
185 1 11.049 6.11142 16.4424 11.049 6.11142 -0.353538 1.80515 -0.108481 -1.31971
188 1 11.1116 7.51543 1.03973 11.1116 7.51543 1.03973 0.682219 -0.402221 0.907444
186 1 11.3719 7.99005 0.22154 11.3719 7.99005 0.22154 -0.120891 -0.0824414 -0.211674
187 1 10.6487 7.08563 16.6182 10.6487 7.08563 -0.177719 -1.4658 -0.861707 0.325445
189 1 11.8897 6.50179 16.0876 11.8897 6.50179 -0.708322 -0.778162 0.540861 1.8196
192 1 12.1589 7.66966 0.888533 12.1589 7.66966 0.888533 -0.142863 0.827207 -1.04508
190 1 14.394 6.95476 16.2894 14.394 6.95476 -0.506517 0.772243 2.7628 -1.57219
191 1 13.8265 6.56878 1.51577 13.8265 6.56878 1.51577 0.130065 0.888125 -1.16309
193 1 12.8629 6.05606 16.3991 12.8629 6.05606 -0.396841 1.74086 -0.425774 0.793519
196 1 13.1164 5.83834 0.541018 13.1164 5.83834 0.541018 0.599018 0.608917 0.336359
194 1 14.5301 7.76277 15.7337 14.5301 7.76277 -1.06229 1.14339 0.0187303 1.19058
195 1 14.1808 6.01723 0.805981 14.1808 6.01723 0.805981 0.330169 0.751443 0.98612
197 1 15.3453 6.54083 0.348797 15.3453 6.54083 0.348797 -2.0041 2.74879 0.767987
200 1 15.2726 7.81548 1.06923 15.2726 7.81548 1.06923 0.122357 1.25105 -0.432029
198 1 16.3394 6.73427 15.9417 16.3394 6.73427 -0.854268 -0.619711 1.4456 -0.0418053
199 1 16.0744 6.45638 1.24679 16.0744 6.45638 1.24679 -0.40903 -1.02095 -0.0807213
201 1 0.0393619 8.47426 0.422008 0.0393619 8.47426 0.422008 -1.31635 1.58151 -0.137749
203 1 0.971014 8.86102 0.35011 0.971014 8.86102 0.35011 -0.632585 -3.74941 1.91308
205 1 2.25149 9.19155 0.107961 2.25149 9.19155 0.107961 2.41039 1.44578 0.502641
207 1 2.96964 9.37819 1.00174 2.96964 9.37819 1.00174 0.617498 0.846652 0.992073
209 1 2.87739 8.17407 16.7988 2.87739 8.17407 0.00287269 0.405183 -3.42775 0.102058
211 1 3.31413 8.16055 0.953878 3.31413 8.16055 0.953878 -0.0821955 -0.0109064 0.0954237
213 1 5.15513 9.06208 0.16902 5.15513 9.06208 0.16902 1.49492 1.70375 0.751173
215 1 5.82254 8.1614 1.49135 5.82254 8.1614 1.49135 2.17441 0.65257 -2.85971
217 1 7.73438 8.23775 0.23969 7.73438 8.23775 0.23969 0.503326 2.87102 -1.85052
219 1 8.31788 7.76494 0.928504 8.31788 7.76494 0.928504 -1.44027 0.983269 0.741593
221 1 9.16405 8.88118 0.204017 9.16405 8.88118 0.204017 0.604135 0.656152 1.1143
223 1 10.1666 8.91563 0.433206 10.1666 8.91563 0.433206 -0.14859 -0.530067 0.962295
225 1 10.161 8.76054 15.791 10.161 8.76054 -1.00496 0.2326 0.626902 1.66664
227 1 10.8025 9.70545 0.836071 10.8025 9.70545 0.836071 -0.524627 -0.369718 2.25378
229 1 12.6824 7.11453 0.0355603 12.6824 7.11453 0.0355603 1.62666 0.669796 -1.26983
231 1 12.9557 9.73505 1.18436 12.9557 9.73505 1.18436 0.301396 -0.215093 -0.0758666
233 1 13.0783 8.04136 0.38854 13.0783 8.04136 0.38854 2.52511 -1.65919 0.866932
235 1 13.4975 6.87118 0.533314 13.4975 6.87118 0.533314 -1.85179 -1.88229 0.539242
237 1 14.2547 7.77888 0.0727065 14.2547 7.77888 0.0727065 -1.66002 -1.48524 -0.633343
239 1 16.0394 7.25358 0.185242 16.0394 7.25358 0.185242 -0.27121 1.31001 -1.11944
202 1 0.620893 10.7222 0.151706 0.620893 10.7222 0.151706 -0.177994 0.389781 0.668388
204 1 15.6784 8.22613 16.4171 -1.11752 8.22613 -0.378825 -0.567356 1.10608 0.311658
241 1 0.0699889 9.79766 0.11898 0.0699889 9.79766 0.11898 0.516544 -0.0997256 -0.0410489
243 1 15.9823 9.09159 0.624259 -0.813703 9.09159 0.624259 -1.57462 -2.35966 -1.86723
206 1 2.36523 10.171 16.3098 2.36523 10.171 -0.486127 0.462391 0.106717 1.67818
208 1 1.8282 10.4279 1.06375 1.8282 10.4279 1.06375 0.998814 -1.12689 0.128137
245 1 1.85905 8.70955 16.0333 1.85905 8.70955 -0.762663 0.771804 -1.58947 -1.8323
247 1 2.83139 10.3309 0.591987 2.83139 10.3309 0.591987 -0.118579 0.097922 0.283607
210 1 4.26034 9.2308 16.1286 4.26034 9.2308 -0.667379 -0.689445 2.37793 0.057765
212 1 3.96128 8.97999 0.441395 3.96128 8.97999 0.441395 -0.602941 -1.16496 0.0219657
249 1 3.85418 10.2406 0.39785 3.85418 10.2406 0.39785 1.62961 0.614994 0.219439
251 1 4.81981 9.95415 0.531188 4.81981 9.95415 0.531188 0.981527 -1.00397 -2.07176
214 1 5.77948 9.45962 0.903858 5.77948 9.45962 0.903858 -1.36788 0.285567 0.00412501
216 1 4.95245 8.53102 1.15867 4.95245 8.53102 1.15867 0.665818 -1.09459 2.18899
253 1 5.35236 9.97702 16.4851 5.35236 9.97702 -0.310816 -0.0362533 2.64761 -0.171512
255 1 5.44645 11.309 0.557144 5.44645 11.309 0.557144 -0.232933 -2.45835 0.20312
218 1 8.23338 9.22676 0.532499 8.23338 9.22676 0.532499 2.39408 0.30952 1.30508
220 1 6.4766 8.57333 0.802435 6.4766 8.57333 0.802435 2.28588 -0.658369 -0.366457
257 1 7.69708 10.1965 16.6769 7.69708 10.1965 -0.119096 -0.452763 -0.0931126 -0.3274
259 1 7.96718 9.78883 1.48951 7.96718 9.78883 1.48951 1.16577 0.50004 -0.316926
224 1 9.59658 9.76132 0.900894 9.59658 9.76132 0.900894 -0.656588 1.47625 0.514006
261 1 8.96804 10.0067 -0.0308023 8.96804 10.0067 -0.0308023 -0.342402 1.34179 -0.348807
222 1 9.51733 9.93031 15.7852 9.51733 9.93031 -1.01079 -1.26397 -0.0154162 0.255053
228 1 10.2008 9.6501 16.5612 10.2008 9.6501 -0.234726 -1.24628 0.292707 0.176726
263 1 9.1753 11.3328 1.59068 9.1753 11.3328 1.59068 -0.838241 -0.0818269 0.0332017
265 1 10.7039 10.7831 16.1494 10.7039 10.7831 -0.646571 0.388707 -1.3374 -2.16152
226 1 11.1689 9.06237 0.102213 11.1689 9.06237 0.102213 1.15004 -0.799436 0.377281
232 1 12.1231 9.18093 0.474029 12.1231 9.18093 0.474029 -2.67212 0.0497022 -0.226721
267 1 10.8187 10.7352 0.649861 10.8187 10.7352 0.649861 1.30343 1.56689 0.203574
269 1 11.3893 10.1345 16.588 11.3893 10.1345 -0.20793 -2.35187 -0.65851 -0.233654
230 1 12.1627 9.20484 16.2955 12.1627 9.20484 -0.500505 0.465529 -1.50466 -0.230536
236 1 13.3139 8.93967 0.89883 13.3139 8.93967 0.89883 0.205136 -1.29451 0.388141
271 1 12.6561 10.7098 1.62177 12.6561 10.7098 1.62177 -1.76485 -1.46206 -0.335463
273 1 12.7661 10.0542 0.183359 12.7661 10.0542 0.183359 2.24131 -0.367248 0.837522
234 1 14.1361 8.87457 0.284116 14.1361 8.87457 0.284116 0.868632 0.974273 0.0887694
240 1 14.8568 9.68466 0.533589 14.8568 9.68466 0.533589 2.35552 -1.18634 0.860308
275 1 13.5342 10.8145 0.837351 13.5342 10.8145 0.837351 0.189281 0.314655 -0.772919
277 1 14.6982 8.80376 1.4708 14.6982 8.80376 1.4708 -0.304059 -1.9455 -0.600353
238 1 0.402732 8.58154 16.244 17.1987 8.58154 -0.551964 0.318525 1.23016 -0.535504
279 1 16.575 8.98253 1.49719 16.575 8.98253 1.49719 1.70711 -0.340958 0.786606
242 1 2.31152 11.313 0.208178 2.31152 11.313 0.208178 -0.584773 -1.65438 -0.996782
244 1 16.7372 10.559 1.14684 -0.0587977 10.559 1.14684 -0.964595 -1.6975 1.35678
281 1 0.746719 11.3571 16.1611 0.746719 11.3571 -0.634838 -0.213971 0.402054 0.302765
283 1 1.27268 11.8406 0.00647502 1.27268 11.8406 0.00647502 0.317853 0.103685 -1.37715
246 1 3.35338 10.7545 16.0095 3.35338 10.7545 -0.786433 2.40384 2.26936 -0.704016
248 1 1.21983 11.668 1.29705 1.21983 11.668 1.29705 0.312256 -0.366331 0.938682
285 1 2.84491 12.9162 0.499282 2.84491 12.9162 0.499282 -1.12148 0.905523 0.666412
287 1 2.01283 12.1242 0.712973 2.01283 12.1242 0.712973 0.675303 2.166 -1.79928
250 1 5.25067 11.1822 16.2229 5.25067 11.1822 -0.57306 0.112315 1.71872 -1.03013
252 1 3.36806 11.1238 0.292483 3.36806 11.1238 0.292483 -0.120673 0.0825355 -2.38361
289 1 3.71626 12.3815 16.6075 3.71626 12.3815 -0.188476 0.352188 1.28111 1.84658
291 1 4.85667 12.1072 0.258936 4.85667 12.1072 0.258936 -0.246993 -0.147202 -0.353275
254 1 6.73763 12.3265 0.483883 6.73763 12.3265 0.483883 -0.675386 -0.971332 0.10957
256 1 5.86255 12.5122 16.7493 5.86255 12.5122 -0.0466144 1.22251 0.156429 0.680242
293 1 5.84863 13.5964 16.4441 5.84863 13.5964 -0.351823 0.129447 0.566462 1.29619
295 1 6.66683 11.1653 0.629424 6.66683 11.1653 0.629424 -1.35729 -0.971822 3.24837
258 1 8.31898 12.0522 0.142527 8.31898 12.0522 0.142527 -2.77629 -1.55269 -0.616191
260 1 7.05074 9.55192 0.860142 7.05074 9.55192 0.860142 0.968778 -1.30685 2.08528
297 1 6.9686 13.1842 16.1001 6.9686 13.1842 -0.695905 0.66797 -0.664311 0.556391
299 1 8.03681 11.5314 2.2594 8.03681 11.5314 2.2594 0.634008 -0.533134 1.64395
264 1 7.57685 11.4903 0.370973 7.57685 11.4903 0.370973 -1.0732 0.48534 -1.19775
301 1 7.53927 13.0134 0.135646 7.53927 13.0134 0.135646 -3.7751 -0.343207 -2.36225
262 1 8.39272 10.9857 0.410744 8.39272 10.9857 0.410744 0.702282 1.98749 0.92378
268 1 9.92719 10.6004 0.328705 9.92719 10.6004 0.328705 -0.00313283 0.272537 -0.987839
303 1 9.41894 12.0624 0.506868 9.41894 12.0624 0.506868 1.50972 -0.403966 1.42776
305 1 9.2999 13.1755 0.809908 9.2999 13.1755 0.809908 -0.424142 0.378973 -1.11694
266 1 10.2308 11.7046 16.4867 10.2308 11.7046 -0.309249 -0.586913 3.0456 -1.46142
272 1 11.7686 10.1543 0.98284 11.7686 10.1543 0.98284 -1.02271 -0.486577 -2.33153
307 1 11.5265 11.9386 0.427787 11.5265 11.9386 0.427787 1.94449 1.18654 2.2174
309 1 12.5691 11.1166 0.652931 12.5691 11.1166 0.652931 1.43627 -2.36849 -0.86204
270 1 13.1528 11.2707 16.4804 13.1528 11.2707 -0.315595 -1.88222 0.482853 -0.98907
276 1 13.7658 11.6806 0.309831 13.7658 11.6806 0.309831 2.23194 0.153341 1.50353
311 1 12.513 11.6522 1.79564 12.513 11.6522 1.79564 0.853224 0.593721 0.0292162
313 1 14.0129 12.5161 0.893844 14.0129 12.5161 0.893844 0.820939 -0.093522 0.315587
274 1 14.4501 10.8505 16.5269 14.4501 10.8505 -0.269098 -1.11214 0.314581 0.906864
280 1 16.273 11.3149 1.68732 16.273 11.3149 1.68732 0.0507886 1.6667 -0.227343
315 1 14.3228 11.4565 1.32449 14.3228 11.4565 1.32449 -1.46733 0.709061 1.3844
317 1 15.1748 11.6756 0.830708 15.1748 11.6756 0.830708 -1.12149 1.37499 2.65166
278 1 15.7064 10.1101 0.739386 15.7064 10.1101 0.739386 -0.300993 0.577635 -0.609759
319 1 16.1261 12.2925 0.902874 16.1261 12.2925 0.902874 1.40905 0.566222 -0.871191
282 1 0.749853 13.1882 16.4334 0.749853 13.1882 -0.362551 1.40447 -0.23199 0.0422561
284 1 0.607327 12.5836 0.509088 0.607327 12.5836 0.509088 0.0272228 0.467866 -1.56485
321 1 1.12671 14.0702 0.539116 1.12671 14.0702 0.539116 2.31846 0.148758 -0.605094
323 1 1.77886 13.2553 0.807277 1.77886 13.2553 0.807277 -0.769953 0.271542 -0.168375
286 1 3.66831 14.1152 16.505 3.66831 14.1152 -0.290983 1.61811 -2.77759 0.208622
288 1 2.89125 13.877 1.21249 2.89125 13.877 1.21249 -0.978184 -2.50744 -0.469395
325 1 1.75962 13.7317 16.5036 1.75962 13.7317 -0.292407 1.59613 0.0595908 0.596829
327 1 2.60588 14.9614 1.56807 2.60588 14.9614 1.56807 1.40725 0.181903 0.359076
290 1 4.77614 13.5971 16.7031 4.77614 13.5971 -0.0928736 -1.88647 -0.591578 -0.867043
292 1 3.99972 12.0455 1.39089 3.99972 12.0455 1.39089 -1.09554 -2.92213 -0.110774
329 1 3.85186 13.2086 0.404739 3.85186 13.2086 0.404739 1.24751 0.482479 -1.7601
331 1 4.71114 12.9188 0.951029 4.71114 12.9188 0.951029 0.985124 -0.403102 0.148833
294 1 6.71641 12.7498 1.62762 6.71641 12.7498 1.62762 -0.0311056 -0.261012 -0.90036
296 1 5.63655 12.7493 1.50948 5.63655 12.7493 1.50948 3.39995 0.662747 1.57605
333 1 6.95837 14.2337 15.7337 6.95837 14.2337 -1.06231 1.06825 -0.901866 -2.25201
335 1 6.47376 14.6874 0.873995 6.47376 14.6874 0.873995 -0.212988 1.36638 -0.643689
298 1 7.57892 12.4674 0.990489 7.57892 12.4674 0.990489 -0.148337 1.81743 2.52673
300 1 7.44093 12.382 2.27568 7.44093 12.382 2.27568 0.769965 -1.06775 1.24359
337 1 6.66051 13.9439 0.085412 6.66051 13.9439 0.085412 -2.40398 0.839985 -1.82057
339 1 7.30257 13.7071 1.0894 7.30257 13.7071 1.0894 -0.684515 -0.216337 -0.872766
304 1 8.55292 12.1815 1.1885 8.55292 12.1815 1.1885 0.707509 0.134798 2.00665
341 1 7.65897 13.9856 16.415 7.65897 13.9856 -0.380935 0.731326 2.985 -1.12806
302 1 8.72193 13.0566 16.7368 8.72193 13.0566 -0.0591371 -1.21532 -2.13592 -1.02627
308 1 9.22069 14.2261 1.00022 9.22069 14.2261 1.00022 0.581354 1.82493 0.780135
343 1 8.00996 13.1357 1.93101 8.00996 13.1357 1.93101 -0.491384 2.89801 -2.34549
345 1 9.82227 13.4337 16.7992 9.82227 13.4337 0.00323195 0.150365 1.60702 0.331483
306 1 10.824 12.575 16.3057 10.824 12.575 -0.490277 -1.40188 0.350555 1.39284
312 1 12.0639 12.5117 1.45984 12.0639 12.5117 1.45984 -0.597814 0.761331 0.209066
347 1 10.241 13.7282 1.12535 10.241 13.7282 1.12535 0.970699 -0.892517 0.365896
349 1 11.1191 13.6621 0.24444 11.1191 13.6621 0.24444 -2.55719 0.0475889 -0.0449707
310 1 12.5198 12.1166 16.5541 12.5198 12.1166 -0.241901 0.816229 -0.0399976 1.2839
316 1 13.3118 13.1665 1.34286 13.3118 13.1665 1.34286 0.946966 -1.3118 0.877909
351 1 13.043 12.8242 0.186292 13.043 12.8242 0.186292 -2.20256 0.408558 0.212096
353 1 13.5245 13.5027 16.0571 13.5245 13.5027 -0.738879 0.816666 -1.20438 -0.788887
314 1 14.5613 12.7967 16.4625 14.5613 12.7967 -0.333426 0.454378 0.613674 -0.4385
320 1 14.9988 12.6969 0.743764 14.9988 12.6969 0.743764 -1.17951 2.99504 -0.871462
355 1 14.0402 13.5614 0.453113 14.0402 13.5614 0.453113 -1.51851 1.1762 0.281444
357 1 15.4935 13.2653 16.5278 15.4935 13.2653 -0.268191 0.213927 0.787996 0.89629
318 1 16.4453 12.8685 0.0522673 16.4453 12.8685 0.0522673 -1.72562 -0.633048 1.63678
359 1 16.2558 14.103 1.71209 16.2558 14.103 1.71209 -1.48818 -3.85844 -0.854986
322 1 1.91092 14.8077 16.7435 1.91092 14.8077 -0.0524548 -0.379934 -0.669772 0.432924
324 1 0.341391 14.5243 1.24513 0.341391 14.5243 1.24513 -0.129878 0.5493 1.39485
361 1 0.918508 14.3803 16.2257 0.918508 14.3803 -0.570231 0.62433 1.75079 -0.614625
363 1 1.8726 15.5695 1.2535 1.8726 15.5695 1.2535 1.03725 -0.406299 0.157034
326 1 3.26177 14.922 15.8927 3.26177 14.922 -0.903297 1.57252 -0.0023128 0.712896
328 1 1.93372 14.4219 1.09857 1.93372 14.4219 1.09857 -1.56148 0.803358 0.976531
365 1 2.08372 15.7339 16.1625 2.08372 15.7339 -0.633422 -0.975196 -1.01575 -1.76286
367 1 3.65701 14.6746 0.978555 3.65701 14.6746 0.978555 0.579419 -0.251033 -0.282222
330 1 6.37077 13.2059 0.773489 6.37077 13.2059 0.773489 -0.61178 -0.364492 0.181975
332 1 3.97282 13.8223 1.67996 3.97282 13.8223 1.67996 0.432131 -2.69351 -0.210262
369 1 3.39849 15.3419 0.0523781 3.39849 15.3419 0.0523781 1.20556 0.540387 -2.00933
371 1 4.56472 14.9584 1.34213 4.56472 14.9584 1.34213 -0.609683 -0.927989 1.62697
334 1 5.80219 15.0942 16.1145 5.80219 15.0942 -0.681492 -0.498013 0.895436 -1.16145
336 1 5.5032 14.3365 0.321697 5.5032 14.3365 0.321697 2.73133 2.07396 -0.102659
373 1 4.61789 14.1536 0.696495 4.61789 14.1536 0.696495 1.49696 -1.35324 -0.985053
375 1 6.0002 15.452 0.410067 6.0002 15.452 0.410067 -0.111261 -1.85825 0.397084
338 1 7.47026 14.5951 0.653592 7.47026 14.5951 0.653592 -1.07723 -1.2385 -1.43446
340 1 6.91302 15.0743 16.3425 6.91302 15.0743 -0.453462 -1.05272 -1.05781 -0.115489
377 1 7.963 16.3771 1.50147 7.963 16.3771 1.50147 -0.881586 0.56284 2.24079
379 1 8.07245 15.2804 1.06738 8.07245 15.2804 1.06738 2.41758 0.660545 0.110881
344 1 8.16213 13.4065 0.900966 8.16213 13.4065 0.900966 -0.999277 -3.61502 0.368403
381 1 8.57228 14.1222 0.260855 8.57228 14.1222 0.260855 -0.429686 -2.74662 -0.169958